+ 0.1 1 0 ping 64 ------- 0 1.0 4.0 -1 0
- 0.1 1 0 ping 64 ------- 0 1.0 4.0 -1 0
r 0.200512 1 0 ping 64 ------- 0 1.0 4.0 -1 0
+ 0.200512 0 4 ping 64 ------- 0 1.0 4.0 -1 0
- 0.200512 0 4 ping 64 ------- 0 1.0 4.0 -1 0
+ 0.3 2 0 ping 64 ------- 0 2.0 5.0 -1 1
- 0.3 2 0 ping 64 ------- 0 2.0 5.0 -1 1
r 0.301024 0 4 ping 64 ------- 0 1.0 4.0 -1 0
+ 0.301024 4 0 ping 64 ------- 0 4.0 1.0 -1 2
- 0.301024 4 0 ping 64 ------- 0 4.0 1.0 -1 2
r 0.400512 2 0 ping 64 ------- 0 2.0 5.0 -1 1
+ 0.400512 0 5 ping 64 ------- 0 2.0 5.0 -1 1
- 0.400512 0 5 ping 64 ------- 0 2.0 5.0 -1 1
r 0.401536 4 0 ping 64 ------- 0 4.0 1.0 -1 2
+ 0.401536 0 1 ping 64 ------- 0 4.0 1.0 -1 2
- 0.401536 0 1 ping 64 ------- 0 4.0 1.0 -1 2
+ 0.5 3 0 ping 64 ------- 0 3.0 6.0 -1 3
- 0.5 3 0 ping 64 ------- 0 3.0 6.0 -1 3
r 0.501024 0 5 ping 64 ------- 0 2.0 5.0 -1 1
+ 0.501024 5 0 ping 64 ------- 0 5.0 2.0 -1 4
- 0.501024 5 0 ping 64 ------- 0 5.0 2.0 -1 4
r 0.502048 0 1 ping 64 ------- 0 4.0 1.0 -1 2
r 0.600512 3 0 ping 64 ------- 0 3.0 6.0 -1 3
+ 0.600512 0 6 ping 64 ------- 0 3.0 6.0 -1 3
- 0.600512 0 6 ping 64 ------- 0 3.0 6.0 -1 3
r 0.601536 5 0 ping 64 ------- 0 5.0 2.0 -1 4
+ 0.601536 0 2 ping 64 ------- 0 5.0 2.0 -1 4
- 0.601536 0 2 ping 64 ------- 0 5.0 2.0 -1 4
r 0.701024 0 6 ping 64 ------- 0 3.0 6.0 -1 3
+ 0.701024 6 0 ping 64 ------- 0 6.0 3.0 -1 5
- 0.701024 6 0 ping 64 ------- 0 6.0 3.0 -1 5
r 0.702048 0 2 ping 64 ------- 0 5.0 2.0 -1 4
r 0.801536 6 0 ping 64 ------- 0 6.0 3.0 -1 5
+ 0.801536 0 3 ping 64 ------- 0 6.0 3.0 -1 5
- 0.801536 0 3 ping 64 ------- 0 6.0 3.0 -1 5
r 0.902048 0 3 ping 64 ------- 0 6.0 3.0 -1 5
+ 1 4 0 ping 64 ------- 0 4.0 1.0 -1 6
- 1 4 0 ping 64 ------- 0 4.0 1.0 -1 6
r 1.100512 4 0 ping 64 ------- 0 4.0 1.0 -1 6
+ 1.100512 0 1 ping 64 ------- 0 4.0 1.0 -1 6
- 1.100512 0 1 ping 64 ------- 0 4.0 1.0 -1 6
+ 1.2 5 0 ping 64 ------- 0 5.0 2.0 -1 7
- 1.2 5 0 ping 64 ------- 0 5.0 2.0 -1 7
r 1.201024 0 1 ping 64 ------- 0 4.0 1.0 -1 6
+ 1.201024 1 0 ping 64 ------- 0 1.0 4.0 -1 8
- 1.201024 1 0 ping 64 ------- 0 1.0 4.0 -1 8
r 1.300512 5 0 ping 64 ------- 0 5.0 2.0 -1 7
+ 1.300512 0 2 ping 64 ------- 0 5.0 2.0 -1 7
- 1.300512 0 2 ping 64 ------- 0 5.0 2.0 -1 7
r 1.301536 1 0 ping 64 ------- 0 1.0 4.0 -1 8
+ 1.301536 0 4 ping 64 ------- 0 1.0 4.0 -1 8
- 1.301536 0 4 ping 64 ------- 0 1.0 4.0 -1 8
r 1.401024 0 2 ping 64 ------- 0 5.0 2.0 -1 7
+ 1.401024 2 0 ping 64 ------- 0 2.0 5.0 -1 9
- 1.401024 2 0 ping 64 ------- 0 2.0 5.0 -1 9
r 1.402048 0 4 ping 64 ------- 0 1.0 4.0 -1 8
+ 1.5 6 0 ping 64 ------- 0 6.0 3.0 -1 10
- 1.5 6 0 ping 64 ------- 0 6.0 3.0 -1 10
r 1.501536 2 0 ping 64 ------- 0 2.0 5.0 -1 9
+ 1.501536 0 5 ping 64 ------- 0 2.0 5.0 -1 9
- 1.501536 0 5 ping 64 ------- 0 2.0 5.0 -1 9
r 1.600512 6 0 ping 64 ------- 0 6.0 3.0 -1 10
+ 1.600512 0 3 ping 64 ------- 0 6.0 3.0 -1 10
- 1.600512 0 3 ping 64 ------- 0 6.0 3.0 -1 10
r 1.602048 0 5 ping 64 ------- 0 2.0 5.0 -1 9
r 1.701024 0 3 ping 64 ------- 0 6.0 3.0 -1 10
+ 1.701024 3 0 ping 64 ------- 0 3.0 6.0 -1 11
- 1.701024 3 0 ping 64 ------- 0 3.0 6.0 -1 11
r 1.801536 3 0 ping 64 ------- 0 3.0 6.0 -1 11
+ 1.801536 0 6 ping 64 ------- 0 3.0 6.0 -1 11
- 1.801536 0 6 ping 64 ------- 0 3.0 6.0 -1 11
r 1.902048 0 6 ping 64 ------- 0 3.0 6.0 -1 11
