+ 0.1 1 0 ping 64 ------- 0 1.0 4.0 -1 0
- 0.1 1 0 ping 64 ------- 0 1.0 4.0 -1 0
r 0.110512 1 0 ping 64 ------- 0 1.0 4.0 -1 0
+ 0.110512 0 4 ping 64 ------- 0 1.0 4.0 -1 0
- 0.110512 0 4 ping 64 ------- 0 1.0 4.0 -1 0
r 0.181024 0 4 ping 64 ------- 0 1.0 4.0 -1 0
+ 0.181024 4 0 ping 64 ------- 0 4.0 1.0 -1 1
- 0.181024 4 0 ping 64 ------- 0 4.0 1.0 -1 1
r 0.251536 4 0 ping 64 ------- 0 4.0 1.0 -1 1
+ 0.251536 0 1 ping 64 ------- 0 4.0 1.0 -1 1
- 0.251536 0 1 ping 64 ------- 0 4.0 1.0 -1 1
r 0.262048 0 1 ping 64 ------- 0 4.0 1.0 -1 1
+ 0.3 2 0 ping 64 ------- 0 2.0 5.0 -1 2
- 0.3 2 0 ping 64 ------- 0 2.0 5.0 -1 2
r 0.310512 2 0 ping 64 ------- 0 2.0 5.0 -1 2
+ 0.310512 0 5 ping 64 ------- 0 2.0 5.0 -1 2
- 0.310512 0 5 ping 64 ------- 0 2.0 5.0 -1 2
r 0.411024 0 5 ping 64 ------- 0 2.0 5.0 -1 2
+ 0.411024 5 0 ping 64 ------- 0 5.0 2.0 -1 3
- 0.411024 5 0 ping 64 ------- 0 5.0 2.0 -1 3
+ 0.5 3 0 ping 64 ------- 0 3.0 6.0 -1 4
- 0.5 3 0 ping 64 ------- 0 3.0 6.0 -1 4
r 0.510512 3 0 ping 64 ------- 0 3.0 6.0 -1 4
+ 0.510512 0 6 ping 64 ------- 0 3.0 6.0 -1 4
- 0.510512 0 6 ping 64 ------- 0 3.0 6.0 -1 4
r 0.511536 5 0 ping 64 ------- 0 5.0 2.0 -1 3
+ 0.511536 0 2 ping 64 ------- 0 5.0 2.0 -1 3
- 0.511536 0 2 ping 64 ------- 0 5.0 2.0 -1 3
r 0.522048 0 2 ping 64 ------- 0 5.0 2.0 -1 3
r 0.601024 0 6 ping 64 ------- 0 3.0 6.0 -1 4
+ 0.601024 6 0 ping 64 ------- 0 6.0 3.0 -1 5
- 0.601024 6 0 ping 64 ------- 0 6.0 3.0 -1 5
r 0.691536 6 0 ping 64 ------- 0 6.0 3.0 -1 5
+ 0.691536 0 3 ping 64 ------- 0 6.0 3.0 -1 5
- 0.691536 0 3 ping 64 ------- 0 6.0 3.0 -1 5
r 0.702048 0 3 ping 64 ------- 0 6.0 3.0 -1 5
+ 1 4 0 ping 64 ------- 0 4.0 1.0 -1 6
- 1 4 0 ping 64 ------- 0 4.0 1.0 -1 6
r 1.070512 4 0 ping 64 ------- 0 4.0 1.0 -1 6
+ 1.070512 0 1 ping 64 ------- 0 4.0 1.0 -1 6
- 1.070512 0 1 ping 64 ------- 0 4.0 1.0 -1 6
r 1.081024 0 1 ping 64 ------- 0 4.0 1.0 -1 6
+ 1.081024 1 0 ping 64 ------- 0 1.0 4.0 -1 7
- 1.081024 1 0 ping 64 ------- 0 1.0 4.0 -1 7
r 1.091536 1 0 ping 64 ------- 0 1.0 4.0 -1 7
+ 1.091536 0 4 ping 64 ------- 0 1.0 4.0 -1 7
- 1.091536 0 4 ping 64 ------- 0 1.0 4.0 -1 7
r 1.162048 0 4 ping 64 ------- 0 1.0 4.0 -1 7
+ 1.2 5 0 ping 64 ------- 0 5.0 2.0 -1 8
- 1.2 5 0 ping 64 ------- 0 5.0 2.0 -1 8
r 1.300512 5 0 ping 64 ------- 0 5.0 2.0 -1 8
+ 1.300512 0 2 ping 64 ------- 0 5.0 2.0 -1 8
- 1.300512 0 2 ping 64 ------- 0 5.0 2.0 -1 8
r 1.311024 0 2 ping 64 ------- 0 5.0 2.0 -1 8
+ 1.311024 2 0 ping 64 ------- 0 2.0 5.0 -1 9
- 1.311024 2 0 ping 64 ------- 0 2.0 5.0 -1 9
r 1.321536 2 0 ping 64 ------- 0 2.0 5.0 -1 9
+ 1.321536 0 5 ping 64 ------- 0 2.0 5.0 -1 9
- 1.321536 0 5 ping 64 ------- 0 2.0 5.0 -1 9
r 1.422048 0 5 ping 64 ------- 0 2.0 5.0 -1 9
+ 1.5 6 0 ping 64 ------- 0 6.0 3.0 -1 10
- 1.5 6 0 ping 64 ------- 0 6.0 3.0 -1 10
r 1.590512 6 0 ping 64 ------- 0 6.0 3.0 -1 10
+ 1.590512 0 3 ping 64 ------- 0 6.0 3.0 -1 10
- 1.590512 0 3 ping 64 ------- 0 6.0 3.0 -1 10
r 1.601024 0 3 ping 64 ------- 0 6.0 3.0 -1 10
+ 1.601024 3 0 ping 64 ------- 0 3.0 6.0 -1 11
- 1.601024 3 0 ping 64 ------- 0 3.0 6.0 -1 11
r 1.611536 3 0 ping 64 ------- 0 3.0 6.0 -1 11
+ 1.611536 0 6 ping 64 ------- 0 3.0 6.0 -1 11
- 1.611536 0 6 ping 64 ------- 0 3.0 6.0 -1 11
r 1.702048 0 6 ping 64 ------- 0 3.0 6.0 -1 11
