+ 0.1 1 0 ping 64 ------- 0 1.0 4.0 -1 0
- 0.1 1 0 ping 64 ------- 0 1.0 4.0 -1 0
+ 0.1 2 0 ping 64 ------- 0 2.0 5.0 -1 1
- 0.1 2 0 ping 64 ------- 0 2.0 5.0 -1 1
+ 0.1 3 0 ping 64 ------- 0 3.0 6.0 -1 2
- 0.1 3 0 ping 64 ------- 0 3.0 6.0 -1 2
+ 0.2 4 0 ping 64 ------- 0 4.0 1.0 -1 3
- 0.2 4 0 ping 64 ------- 0 4.0 1.0 -1 3
+ 0.2 5 0 ping 64 ------- 0 5.0 2.0 -1 4
- 0.2 5 0 ping 64 ------- 0 5.0 2.0 -1 4
+ 0.2 6 0 ping 64 ------- 0 6.0 3.0 -1 5
- 0.2 6 0 ping 64 ------- 0 6.0 3.0 -1 5
r 0.20512 1 0 ping 64 ------- 0 1.0 4.0 -1 0
+ 0.20512 0 4 ping 64 ------- 0 1.0 4.0 -1 0
- 0.20512 0 4 ping 64 ------- 0 1.0 4.0 -1 0
r 0.20512 2 0 ping 64 ------- 0 2.0 5.0 -1 1
+ 0.20512 0 5 ping 64 ------- 0 2.0 5.0 -1 1
- 0.20512 0 5 ping 64 ------- 0 2.0 5.0 -1 1
r 0.20512 3 0 ping 64 ------- 0 3.0 6.0 -1 2
+ 0.20512 0 6 ping 64 ------- 0 3.0 6.0 -1 2
- 0.20512 0 6 ping 64 ------- 0 3.0 6.0 -1 2
r 0.30512 4 0 ping 64 ------- 0 4.0 1.0 -1 3
+ 0.30512 0 1 ping 64 ------- 0 4.0 1.0 -1 3
- 0.30512 0 1 ping 64 ------- 0 4.0 1.0 -1 3
r 0.30512 5 0 ping 64 ------- 0 5.0 2.0 -1 4
+ 0.30512 0 2 ping 64 ------- 0 5.0 2.0 -1 4
- 0.30512 0 2 ping 64 ------- 0 5.0 2.0 -1 4
r 0.30512 6 0 ping 64 ------- 0 6.0 3.0 -1 5
+ 0.30512 0 3 ping 64 ------- 0 6.0 3.0 -1 5
- 0.30512 0 3 ping 64 ------- 0 6.0 3.0 -1 5
r 0.31024 0 4 ping 64 ------- 0 1.0 4.0 -1 0
+ 0.31024 4 0 ping 64 ------- 0 4.0 1.0 -1 6
- 0.31024 4 0 ping 64 ------- 0 4.0 1.0 -1 6
r 0.31024 0 5 ping 64 ------- 0 2.0 5.0 -1 1
+ 0.31024 5 0 ping 64 ------- 0 5.0 2.0 -1 7
- 0.31024 5 0 ping 64 ------- 0 5.0 2.0 -1 7
r 0.31024 0 6 ping 64 ------- 0 3.0 6.0 -1 2
+ 0.31024 6 0 ping 64 ------- 0 6.0 3.0 -1 8
- 0.31024 6 0 ping 64 ------- 0 6.0 3.0 -1 8
r 0.41024 0 1 ping 64 ------- 0 4.0 1.0 -1 3
+ 0.41024 1 0 ping 64 ------- 0 1.0 4.0 -1 9
- 0.41024 1 0 ping 64 ------- 0 1.0 4.0 -1 9
r 0.41024 0 2 ping 64 ------- 0 5.0 2.0 -1 4
+ 0.41024 2 0 ping 64 ------- 0 2.0 5.0 -1 10
- 0.41024 2 0 ping 64 ------- 0 2.0 5.0 -1 10
r 0.41024 0 3 ping 64 ------- 0 6.0 3.0 -1 5
+ 0.41024 3 0 ping 64 ------- 0 3.0 6.0 -1 11
- 0.41024 3 0 ping 64 ------- 0 3.0 6.0 -1 11
r 0.41536 4 0 ping 64 ------- 0 4.0 1.0 -1 6
+ 0.41536 0 1 ping 64 ------- 0 4.0 1.0 -1 6
- 0.41536 0 1 ping 64 ------- 0 4.0 1.0 -1 6
r 0.41536 5 0 ping 64 ------- 0 5.0 2.0 -1 7
+ 0.41536 0 2 ping 64 ------- 0 5.0 2.0 -1 7
- 0.41536 0 2 ping 64 ------- 0 5.0 2.0 -1 7
r 0.41536 6 0 ping 64 ------- 0 6.0 3.0 -1 8
+ 0.41536 0 3 ping 64 ------- 0 6.0 3.0 -1 8
- 0.41536 0 3 ping 64 ------- 0 6.0 3.0 -1 8
r 0.51536 1 0 ping 64 ------- 0 1.0 4.0 -1 9
+ 0.51536 0 4 ping 64 ------- 0 1.0 4.0 -1 9
- 0.51536 0 4 ping 64 ------- 0 1.0 4.0 -1 9
r 0.51536 2 0 ping 64 ------- 0 2.0 5.0 -1 10
+ 0.51536 0 5 ping 64 ------- 0 2.0 5.0 -1 10
- 0.51536 0 5 ping 64 ------- 0 2.0 5.0 -1 10
r 0.51536 3 0 ping 64 ------- 0 3.0 6.0 -1 11
+ 0.51536 0 6 ping 64 ------- 0 3.0 6.0 -1 11
- 0.51536 0 6 ping 64 ------- 0 3.0 6.0 -1 11
r 0.52048 0 1 ping 64 ------- 0 4.0 1.0 -1 6
r 0.52048 0 2 ping 64 ------- 0 5.0 2.0 -1 7
r 0.52048 0 3 ping 64 ------- 0 6.0 3.0 -1 8
r 0.62048 0 4 ping 64 ------- 0 1.0 4.0 -1 9
r 0.62048 0 5 ping 64 ------- 0 2.0 5.0 -1 10
r 0.62048 0 6 ping 64 ------- 0 3.0 6.0 -1 11
