+ 0.5 0 2 tcp 40 ------- 1 0.0 3.0 0 0
- 0.5 0 2 tcp 40 ------- 1 0.0 3.0 0 0
r 0.51016 0 2 tcp 40 ------- 1 0.0 3.0 0 0
+ 0.51016 2 3 tcp 40 ------- 1 0.0 3.0 0 0
- 0.51016 2 3 tcp 40 ------- 1 0.0 3.0 0 0
r 0.522827 2 3 tcp 40 ------- 1 0.0 3.0 0 0
+ 0.522827 3 2 ack 40 ------- 1 3.0 0.0 0 1
- 0.522827 3 2 ack 40 ------- 1 3.0 0.0 0 1
r 0.533147 3 2 ack 40 ------- 1 3.0 0.0 0 1
+ 0.533147 2 0 ack 40 ------- 1 3.0 0.0 0 1
- 0.533147 2 0 ack 40 ------- 1 3.0 0.0 0 1
r 0.543307 2 0 ack 40 ------- 1 3.0 0.0 0 1
+ 0.543307 0 2 tcp 1040 ------- 1 0.0 3.0 1 2
- 0.543307 0 2 tcp 1040 ------- 1 0.0 3.0 1 2
+ 0.543307 0 2 tcp 1040 ------- 1 0.0 3.0 2 3
- 0.547467 0 2 tcp 1040 ------- 1 0.0 3.0 2 3
r 0.557467 0 2 tcp 1040 ------- 1 0.0 3.0 1 2
+ 0.557467 2 3 tcp 1040 ------- 1 0.0 3.0 1 2
- 0.557467 2 3 tcp 1040 ------- 1 0.0 3.0 1 2
r 0.561627 0 2 tcp 1040 ------- 1 0.0 3.0 2 3
+ 0.561627 2 3 tcp 1040 ------- 1 0.0 3.0 2 3
- 0.6268 2 3 tcp 1040 ------- 1 0.0 3.0 2 3
r 0.6368 2 3 tcp 1040 ------- 1 0.0 3.0 1 2
+ 0.6368 3 2 ack 40 ------- 1 3.0 0.0 1 4
- 0.6368 3 2 ack 40 ------- 1 3.0 0.0 1 4
r 0.64712 3 2 ack 40 ------- 1 3.0 0.0 1 4
+ 0.64712 2 0 ack 40 ------- 1 3.0 0.0 1 4
- 0.64712 2 0 ack 40 ------- 1 3.0 0.0 1 4
r 0.65728 2 0 ack 40 ------- 1 3.0 0.0 1 4
+ 0.65728 0 2 tcp 1040 ------- 1 0.0 3.0 3 5
- 0.65728 0 2 tcp 1040 ------- 1 0.0 3.0 3 5
+ 0.65728 0 2 tcp 1040 ------- 1 0.0 3.0 4 6
- 0.66144 0 2 tcp 1040 ------- 1 0.0 3.0 4 6
r 0.67144 0 2 tcp 1040 ------- 1 0.0 3.0 3 5
+ 0.67144 2 3 tcp 1040 ------- 1 0.0 3.0 3 5
r 0.6756 0 2 tcp 1040 ------- 1 0.0 3.0 4 6
+ 0.6756 2 3 tcp 1040 ------- 1 0.0 3.0 4 6
- 0.696133 2 3 tcp 1040 ------- 1 0.0 3.0 3 5
r 0.706133 2 3 tcp 1040 ------- 1 0.0 3.0 2 3
+ 0.706133 3 2 ack 40 ------- 1 3.0 0.0 2 7
- 0.706133 3 2 ack 40 ------- 1 3.0 0.0 2 7
r 0.716453 3 2 ack 40 ------- 1 3.0 0.0 2 7
+ 0.716453 2 0 ack 40 ------- 1 3.0 0.0 2 7
- 0.716453 2 0 ack 40 ------- 1 3.0 0.0 2 7
r 0.726613 2 0 ack 40 ------- 1 3.0 0.0 2 7
+ 0.726613 0 2 tcp 1040 ------- 1 0.0 3.0 5 8
- 0.726613 0 2 tcp 1040 ------- 1 0.0 3.0 5 8
+ 0.726613 0 2 tcp 1040 ------- 1 0.0 3.0 6 9
- 0.730773 0 2 tcp 1040 ------- 1 0.0 3.0 6 9
r 0.740773 0 2 tcp 1040 ------- 1 0.0 3.0 5 8
+ 0.740773 2 3 tcp 1040 ------- 1 0.0 3.0 5 8
r 0.744933 0 2 tcp 1040 ------- 1 0.0 3.0 6 9
+ 0.744933 2 3 tcp 1040 ------- 1 0.0 3.0 6 9
- 0.765467 2 3 tcp 1040 ------- 1 0.0 3.0 4 6
r 0.775467 2 3 tcp 1040 ------- 1 0.0 3.0 3 5
+ 0.775467 3 2 ack 40 ------- 1 3.0 0.0 3 10
- 0.775467 3 2 ack 40 ------- 1 3.0 0.0 3 10
r 0.785787 3 2 ack 40 ------- 1 3.0 0.0 3 10
+ 0.785787 2 0 ack 40 ------- 1 3.0 0.0 3 10
- 0.785787 2 0 ack 40 ------- 1 3.0 0.0 3 10
r 0.795947 2 0 ack 40 ------- 1 3.0 0.0 3 10
+ 0.795947 0 2 tcp 1040 ------- 1 0.0 3.0 7 11
- 0.795947 0 2 tcp 1040 ------- 1 0.0 3.0 7 11
+ 0.795947 0 2 tcp 1040 ------- 1 0.0 3.0 8 12
- 0.800107 0 2 tcp 1040 ------- 1 0.0 3.0 8 12
r 0.810107 0 2 tcp 1040 ------- 1 0.0 3.0 7 11
+ 0.810107 2 3 tcp 1040 ------- 1 0.0 3.0 7 11
r 0.814267 0 2 tcp 1040 ------- 1 0.0 3.0 8 12
+ 0.814267 2 3 tcp 1040 ------- 1 0.0 3.0 8 12
- 0.8348 2 3 tcp 1040 ------- 1 0.0 3.0 5 8
r 0.8448 2 3 tcp 1040 ------- 1 0.0 3.0 4 6
+ 0.8448 3 2 ack 40 ------- 1 3.0 0.0 4 13
- 0.8448 3 2 ack 40 ------- 1 3.0 0.0 4 13
r 0.85512 3 2 ack 40 ------- 1 3.0 0.0 4 13
+ 0.85512 2 0 ack 40 ------- 1 3.0 0.0 4 13
- 0.85512 2 0 ack 40 ------- 1 3.0 0.0 4 13
r 0.86528 2 0 ack 40 ------- 1 3.0 0.0 4 13
+ 0.86528 0 2 tcp 1040 ------- 1 0.0 3.0 9 14
- 0.86528 0 2 tcp 1040 ------- 1 0.0 3.0 9 14
+ 0.86528 0 2 tcp 1040 ------- 1 0.0 3.0 10 15
- 0.86944 0 2 tcp 1040 ------- 1 0.0 3.0 10 15
r 0.87944 0 2 tcp 1040 ------- 1 0.0 3.0 9 14
+ 0.87944 2 3 tcp 1040 ------- 1 0.0 3.0 9 14
r 0.8836 0 2 tcp 1040 ------- 1 0.0 3.0 10 15
+ 0.8836 2 3 tcp 1040 ------- 1 0.0 3.0 10 15
- 0.904133 2 3 tcp 1040 ------- 1 0.0 3.0 6 9
r 0.914133 2 3 tcp 1040 ------- 1 0.0 3.0 5 8
+ 0.914133 3 2 ack 40 ------- 1 3.0 0.0 5 16
- 0.914133 3 2 ack 40 ------- 1 3.0 0.0 5 16
r 0.924453 3 2 ack 40 ------- 1 3.0 0.0 5 16
+ 0.924453 2 0 ack 40 ------- 1 3.0 0.0 5 16
- 0.924453 2 0 ack 40 ------- 1 3.0 0.0 5 16
r 0.934613 2 0 ack 40 ------- 1 3.0 0.0 5 16
+ 0.934613 0 2 tcp 1040 ------- 1 0.0 3.0 11 17
- 0.934613 0 2 tcp 1040 ------- 1 0.0 3.0 11 17
+ 0.934613 0 2 tcp 1040 ------- 1 0.0 3.0 12 18
- 0.938773 0 2 tcp 1040 ------- 1 0.0 3.0 12 18
r 0.948773 0 2 tcp 1040 ------- 1 0.0 3.0 11 17
+ 0.948773 2 3 tcp 1040 ------- 1 0.0 3.0 11 17
r 0.952933 0 2 tcp 1040 ------- 1 0.0 3.0 12 18
+ 0.952933 2 3 tcp 1040 ------- 1 0.0 3.0 12 18
- 0.973467 2 3 tcp 1040 ------- 1 0.0 3.0 7 11
r 0.983467 2 3 tcp 1040 ------- 1 0.0 3.0 6 9
+ 0.983467 3 2 ack 40 ------- 1 3.0 0.0 6 19
- 0.983467 3 2 ack 40 ------- 1 3.0 0.0 6 19
r 0.993787 3 2 ack 40 ------- 1 3.0 0.0 6 19
+ 0.993787 2 0 ack 40 ------- 1 3.0 0.0 6 19
- 0.993787 2 0 ack 40 ------- 1 3.0 0.0 6 19
r 1.003947 2 0 ack 40 ------- 1 3.0 0.0 6 19
+ 1.003947 0 2 tcp 1040 ------- 1 0.0 3.0 13 20
- 1.003947 0 2 tcp 1040 ------- 1 0.0 3.0 13 20
+ 1.003947 0 2 tcp 1040 ------- 1 0.0 3.0 14 21
- 1.008107 0 2 tcp 1040 ------- 1 0.0 3.0 14 21
r 1.018107 0 2 tcp 1040 ------- 1 0.0 3.0 13 20
+ 1.018107 2 3 tcp 1040 ------- 1 0.0 3.0 13 20
r 1.022267 0 2 tcp 1040 ------- 1 0.0 3.0 14 21
+ 1.022267 2 3 tcp 1040 ------- 1 0.0 3.0 14 21
- 1.0428 2 3 tcp 1040 ------- 1 0.0 3.0 8 12
r 1.0528 2 3 tcp 1040 ------- 1 0.0 3.0 7 11
+ 1.0528 3 2 ack 40 ------- 1 3.0 0.0 7 22
- 1.0528 3 2 ack 40 ------- 1 3.0 0.0 7 22
r 1.06312 3 2 ack 40 ------- 1 3.0 0.0 7 22
+ 1.06312 2 0 ack 40 ------- 1 3.0 0.0 7 22
- 1.06312 2 0 ack 40 ------- 1 3.0 0.0 7 22
r 1.07328 2 0 ack 40 ------- 1 3.0 0.0 7 22
+ 1.07328 0 2 tcp 1040 ------- 1 0.0 3.0 15 23
- 1.07328 0 2 tcp 1040 ------- 1 0.0 3.0 15 23
+ 1.07328 0 2 tcp 1040 ------- 1 0.0 3.0 16 24
- 1.07744 0 2 tcp 1040 ------- 1 0.0 3.0 16 24
r 1.08744 0 2 tcp 1040 ------- 1 0.0 3.0 15 23
+ 1.08744 2 3 tcp 1040 ------- 1 0.0 3.0 15 23
r 1.0916 0 2 tcp 1040 ------- 1 0.0 3.0 16 24
+ 1.0916 2 3 tcp 1040 ------- 1 0.0 3.0 16 24
- 1.112133 2 3 tcp 1040 ------- 1 0.0 3.0 9 14
r 1.122133 2 3 tcp 1040 ------- 1 0.0 3.0 8 12
+ 1.122133 3 2 ack 40 ------- 1 3.0 0.0 8 25
- 1.122133 3 2 ack 40 ------- 1 3.0 0.0 8 25
r 1.132453 3 2 ack 40 ------- 1 3.0 0.0 8 25
+ 1.132453 2 0 ack 40 ------- 1 3.0 0.0 8 25
- 1.132453 2 0 ack 40 ------- 1 3.0 0.0 8 25
r 1.142613 2 0 ack 40 ------- 1 3.0 0.0 8 25
+ 1.142613 0 2 tcp 1040 ------- 1 0.0 3.0 17 26
- 1.142613 0 2 tcp 1040 ------- 1 0.0 3.0 17 26
+ 1.142613 0 2 tcp 1040 ------- 1 0.0 3.0 18 27
- 1.146773 0 2 tcp 1040 ------- 1 0.0 3.0 18 27
r 1.156773 0 2 tcp 1040 ------- 1 0.0 3.0 17 26
+ 1.156773 2 3 tcp 1040 ------- 1 0.0 3.0 17 26
r 1.160933 0 2 tcp 1040 ------- 1 0.0 3.0 18 27
+ 1.160933 2 3 tcp 1040 ------- 1 0.0 3.0 18 27
- 1.181467 2 3 tcp 1040 ------- 1 0.0 3.0 10 15
r 1.191467 2 3 tcp 1040 ------- 1 0.0 3.0 9 14
+ 1.191467 3 2 ack 40 ------- 1 3.0 0.0 9 28
- 1.191467 3 2 ack 40 ------- 1 3.0 0.0 9 28
r 1.201787 3 2 ack 40 ------- 1 3.0 0.0 9 28
+ 1.201787 2 0 ack 40 ------- 1 3.0 0.0 9 28
- 1.201787 2 0 ack 40 ------- 1 3.0 0.0 9 28
r 1.211947 2 0 ack 40 ------- 1 3.0 0.0 9 28
+ 1.211947 0 2 tcp 1040 ------- 1 0.0 3.0 19 29
- 1.211947 0 2 tcp 1040 ------- 1 0.0 3.0 19 29
+ 1.211947 0 2 tcp 1040 ------- 1 0.0 3.0 20 30
- 1.216107 0 2 tcp 1040 ------- 1 0.0 3.0 20 30
r 1.226107 0 2 tcp 1040 ------- 1 0.0 3.0 19 29
+ 1.226107 2 3 tcp 1040 ------- 1 0.0 3.0 19 29
r 1.230267 0 2 tcp 1040 ------- 1 0.0 3.0 20 30
+ 1.230267 2 3 tcp 1040 ------- 1 0.0 3.0 20 30
- 1.2508 2 3 tcp 1040 ------- 1 0.0 3.0 11 17
r 1.2608 2 3 tcp 1040 ------- 1 0.0 3.0 10 15
+ 1.2608 3 2 ack 40 ------- 1 3.0 0.0 10 31
- 1.2608 3 2 ack 40 ------- 1 3.0 0.0 10 31
r 1.27112 3 2 ack 40 ------- 1 3.0 0.0 10 31
+ 1.27112 2 0 ack 40 ------- 1 3.0 0.0 10 31
- 1.27112 2 0 ack 40 ------- 1 3.0 0.0 10 31
r 1.28128 2 0 ack 40 ------- 1 3.0 0.0 10 31
+ 1.28128 0 2 tcp 1040 ------- 1 0.0 3.0 21 32
- 1.28128 0 2 tcp 1040 ------- 1 0.0 3.0 21 32
+ 1.28128 0 2 tcp 1040 ------- 1 0.0 3.0 22 33
- 1.28544 0 2 tcp 1040 ------- 1 0.0 3.0 22 33
r 1.29544 0 2 tcp 1040 ------- 1 0.0 3.0 21 32
+ 1.29544 2 3 tcp 1040 ------- 1 0.0 3.0 21 32
r 1.2996 0 2 tcp 1040 ------- 1 0.0 3.0 22 33
+ 1.2996 2 3 tcp 1040 ------- 1 0.0 3.0 22 33
+ 1.318317 1 2 tcp 40 ------- 2 1.0 3.1 0 34
- 1.318317 1 2 tcp 40 ------- 2 1.0 3.1 0 34
- 1.320133 2 3 tcp 1040 ------- 1 0.0 3.0 12 18
r 1.328477 1 2 tcp 40 ------- 2 1.0 3.1 0 34
+ 1.328477 2 3 tcp 40 ------- 2 1.0 3.1 0 34
r 1.330133 2 3 tcp 1040 ------- 1 0.0 3.0 11 17
+ 1.330133 3 2 ack 40 ------- 1 3.0 0.0 11 35
- 1.330133 3 2 ack 40 ------- 1 3.0 0.0 11 35
r 1.340453 3 2 ack 40 ------- 1 3.0 0.0 11 35
+ 1.340453 2 0 ack 40 ------- 1 3.0 0.0 11 35
- 1.340453 2 0 ack 40 ------- 1 3.0 0.0 11 35
r 1.350613 2 0 ack 40 ------- 1 3.0 0.0 11 35
+ 1.350613 0 2 tcp 1040 ------- 1 0.0 3.0 23 36
- 1.350613 0 2 tcp 1040 ------- 1 0.0 3.0 23 36
+ 1.350613 0 2 tcp 1040 ------- 1 0.0 3.0 24 37
- 1.354773 0 2 tcp 1040 ------- 1 0.0 3.0 24 37
r 1.364773 0 2 tcp 1040 ------- 1 0.0 3.0 23 36
+ 1.364773 2 3 tcp 1040 ------- 1 0.0 3.0 23 36
r 1.368933 0 2 tcp 1040 ------- 1 0.0 3.0 24 37
+ 1.368933 2 3 tcp 1040 ------- 1 0.0 3.0 24 37
- 1.389467 2 3 tcp 1040 ------- 1 0.0 3.0 13 20
r 1.399467 2 3 tcp 1040 ------- 1 0.0 3.0 12 18
+ 1.399467 3 2 ack 40 ------- 1 3.0 0.0 12 38
- 1.399467 3 2 ack 40 ------- 1 3.0 0.0 12 38
r 1.409787 3 2 ack 40 ------- 1 3.0 0.0 12 38
+ 1.409787 2 0 ack 40 ------- 1 3.0 0.0 12 38
- 1.409787 2 0 ack 40 ------- 1 3.0 0.0 12 38
r 1.419947 2 0 ack 40 ------- 1 3.0 0.0 12 38
+ 1.419947 0 2 tcp 1040 ------- 1 0.0 3.0 25 39
- 1.419947 0 2 tcp 1040 ------- 1 0.0 3.0 25 39
+ 1.419947 0 2 tcp 1040 ------- 1 0.0 3.0 26 40
- 1.424107 0 2 tcp 1040 ------- 1 0.0 3.0 26 40
r 1.434107 0 2 tcp 1040 ------- 1 0.0 3.0 25 39
+ 1.434107 2 3 tcp 1040 ------- 1 0.0 3.0 25 39
r 1.438267 0 2 tcp 1040 ------- 1 0.0 3.0 26 40
+ 1.438267 2 3 tcp 1040 ------- 1 0.0 3.0 26 40
- 1.4588 2 3 tcp 1040 ------- 1 0.0 3.0 14 21
r 1.4688 2 3 tcp 1040 ------- 1 0.0 3.0 13 20
+ 1.4688 3 2 ack 40 ------- 1 3.0 0.0 13 41
- 1.4688 3 2 ack 40 ------- 1 3.0 0.0 13 41
r 1.47912 3 2 ack 40 ------- 1 3.0 0.0 13 41
+ 1.47912 2 0 ack 40 ------- 1 3.0 0.0 13 41
- 1.47912 2 0 ack 40 ------- 1 3.0 0.0 13 41
r 1.48928 2 0 ack 40 ------- 1 3.0 0.0 13 41
+ 1.48928 0 2 tcp 1040 ------- 1 0.0 3.0 27 42
- 1.48928 0 2 tcp 1040 ------- 1 0.0 3.0 27 42
+ 1.48928 0 2 tcp 1040 ------- 1 0.0 3.0 28 43
- 1.49344 0 2 tcp 1040 ------- 1 0.0 3.0 28 43
r 1.50344 0 2 tcp 1040 ------- 1 0.0 3.0 27 42
+ 1.50344 2 3 tcp 1040 ------- 1 0.0 3.0 27 42
r 1.5076 0 2 tcp 1040 ------- 1 0.0 3.0 28 43
+ 1.5076 2 3 tcp 1040 ------- 1 0.0 3.0 28 43
- 1.528133 2 3 tcp 1040 ------- 1 0.0 3.0 15 23
r 1.538133 2 3 tcp 1040 ------- 1 0.0 3.0 14 21
+ 1.538133 3 2 ack 40 ------- 1 3.0 0.0 14 44
- 1.538133 3 2 ack 40 ------- 1 3.0 0.0 14 44
r 1.548453 3 2 ack 40 ------- 1 3.0 0.0 14 44
+ 1.548453 2 0 ack 40 ------- 1 3.0 0.0 14 44
- 1.548453 2 0 ack 40 ------- 1 3.0 0.0 14 44
r 1.558613 2 0 ack 40 ------- 1 3.0 0.0 14 44
+ 1.558613 0 2 tcp 1040 ------- 1 0.0 3.0 29 45
- 1.558613 0 2 tcp 1040 ------- 1 0.0 3.0 29 45
+ 1.558613 0 2 tcp 1040 ------- 1 0.0 3.0 30 46
- 1.562773 0 2 tcp 1040 ------- 1 0.0 3.0 30 46
r 1.572773 0 2 tcp 1040 ------- 1 0.0 3.0 29 45
+ 1.572773 2 3 tcp 1040 ------- 1 0.0 3.0 29 45
r 1.576933 0 2 tcp 1040 ------- 1 0.0 3.0 30 46
+ 1.576933 2 3 tcp 1040 ------- 1 0.0 3.0 30 46
- 1.597467 2 3 tcp 1040 ------- 1 0.0 3.0 16 24
r 1.607467 2 3 tcp 1040 ------- 1 0.0 3.0 15 23
+ 1.607467 3 2 ack 40 ------- 1 3.0 0.0 15 47
- 1.607467 3 2 ack 40 ------- 1 3.0 0.0 15 47
r 1.617787 3 2 ack 40 ------- 1 3.0 0.0 15 47
+ 1.617787 2 0 ack 40 ------- 1 3.0 0.0 15 47
- 1.617787 2 0 ack 40 ------- 1 3.0 0.0 15 47
r 1.627947 2 0 ack 40 ------- 1 3.0 0.0 15 47
+ 1.627947 0 2 tcp 1040 ------- 1 0.0 3.0 31 48
- 1.627947 0 2 tcp 1040 ------- 1 0.0 3.0 31 48
+ 1.627947 0 2 tcp 1040 ------- 1 0.0 3.0 32 49
- 1.632107 0 2 tcp 1040 ------- 1 0.0 3.0 32 49
r 1.642107 0 2 tcp 1040 ------- 1 0.0 3.0 31 48
+ 1.642107 2 3 tcp 1040 ------- 1 0.0 3.0 31 48
r 1.646267 0 2 tcp 1040 ------- 1 0.0 3.0 32 49
+ 1.646267 2 3 tcp 1040 ------- 1 0.0 3.0 32 49
- 1.6668 2 3 tcp 1040 ------- 1 0.0 3.0 17 26
r 1.6768 2 3 tcp 1040 ------- 1 0.0 3.0 16 24
+ 1.6768 3 2 ack 40 ------- 1 3.0 0.0 16 50
- 1.6768 3 2 ack 40 ------- 1 3.0 0.0 16 50
r 1.68712 3 2 ack 40 ------- 1 3.0 0.0 16 50
+ 1.68712 2 0 ack 40 ------- 1 3.0 0.0 16 50
- 1.68712 2 0 ack 40 ------- 1 3.0 0.0 16 50
r 1.69728 2 0 ack 40 ------- 1 3.0 0.0 16 50
+ 1.69728 0 2 tcp 1040 ------- 1 0.0 3.0 33 51
- 1.69728 0 2 tcp 1040 ------- 1 0.0 3.0 33 51
+ 1.69728 0 2 tcp 1040 ------- 1 0.0 3.0 34 52
- 1.70144 0 2 tcp 1040 ------- 1 0.0 3.0 34 52
r 1.71144 0 2 tcp 1040 ------- 1 0.0 3.0 33 51
+ 1.71144 2 3 tcp 1040 ------- 1 0.0 3.0 33 51
r 1.7156 0 2 tcp 1040 ------- 1 0.0 3.0 34 52
+ 1.7156 2 3 tcp 1040 ------- 1 0.0 3.0 34 52
- 1.736133 2 3 tcp 1040 ------- 1 0.0 3.0 18 27
r 1.746133 2 3 tcp 1040 ------- 1 0.0 3.0 17 26
+ 1.746133 3 2 ack 40 ------- 1 3.0 0.0 17 53
- 1.746133 3 2 ack 40 ------- 1 3.0 0.0 17 53
r 1.756453 3 2 ack 40 ------- 1 3.0 0.0 17 53
+ 1.756453 2 0 ack 40 ------- 1 3.0 0.0 17 53
- 1.756453 2 0 ack 40 ------- 1 3.0 0.0 17 53
r 1.766613 2 0 ack 40 ------- 1 3.0 0.0 17 53
+ 1.766613 0 2 tcp 1040 ------- 1 0.0 3.0 35 54
- 1.766613 0 2 tcp 1040 ------- 1 0.0 3.0 35 54
+ 1.766613 0 2 tcp 1040 ------- 1 0.0 3.0 36 55
- 1.770773 0 2 tcp 1040 ------- 1 0.0 3.0 36 55
r 1.780773 0 2 tcp 1040 ------- 1 0.0 3.0 35 54
+ 1.780773 2 3 tcp 1040 ------- 1 0.0 3.0 35 54
r 1.784933 0 2 tcp 1040 ------- 1 0.0 3.0 36 55
+ 1.784933 2 3 tcp 1040 ------- 1 0.0 3.0 36 55
- 1.805467 2 3 tcp 1040 ------- 1 0.0 3.0 19 29
r 1.815467 2 3 tcp 1040 ------- 1 0.0 3.0 18 27
+ 1.815467 3 2 ack 40 ------- 1 3.0 0.0 18 56
- 1.815467 3 2 ack 40 ------- 1 3.0 0.0 18 56
r 1.825787 3 2 ack 40 ------- 1 3.0 0.0 18 56
+ 1.825787 2 0 ack 40 ------- 1 3.0 0.0 18 56
- 1.825787 2 0 ack 40 ------- 1 3.0 0.0 18 56
r 1.835947 2 0 ack 40 ------- 1 3.0 0.0 18 56
+ 1.835947 0 2 tcp 1040 ------- 1 0.0 3.0 37 57
- 1.835947 0 2 tcp 1040 ------- 1 0.0 3.0 37 57
+ 1.835947 0 2 tcp 1040 ------- 1 0.0 3.0 38 58
- 1.840107 0 2 tcp 1040 ------- 1 0.0 3.0 38 58
r 1.850107 0 2 tcp 1040 ------- 1 0.0 3.0 37 57
+ 1.850107 2 3 tcp 1040 ------- 1 0.0 3.0 37 57
r 1.854267 0 2 tcp 1040 ------- 1 0.0 3.0 38 58
+ 1.854267 2 3 tcp 1040 ------- 1 0.0 3.0 38 58
- 1.8748 2 3 tcp 1040 ------- 1 0.0 3.0 20 30
r 1.8848 2 3 tcp 1040 ------- 1 0.0 3.0 19 29
+ 1.8848 3 2 ack 40 ------- 1 3.0 0.0 19 59
- 1.8848 3 2 ack 40 ------- 1 3.0 0.0 19 59
r 1.89512 3 2 ack 40 ------- 1 3.0 0.0 19 59
+ 1.89512 2 0 ack 40 ------- 1 3.0 0.0 19 59
- 1.89512 2 0 ack 40 ------- 1 3.0 0.0 19 59
r 1.90528 2 0 ack 40 ------- 1 3.0 0.0 19 59
+ 1.90528 0 2 tcp 1040 ------- 1 0.0 3.0 39 60
- 1.90528 0 2 tcp 1040 ------- 1 0.0 3.0 39 60
r 1.91944 0 2 tcp 1040 ------- 1 0.0 3.0 39 60
+ 1.91944 2 3 tcp 1040 ------- 1 0.0 3.0 39 60
- 1.944133 2 3 tcp 1040 ------- 1 0.0 3.0 21 32
r 1.954133 2 3 tcp 1040 ------- 1 0.0 3.0 20 30
+ 1.954133 3 2 ack 40 ------- 1 3.0 0.0 20 61
- 1.954133 3 2 ack 40 ------- 1 3.0 0.0 20 61
r 1.964453 3 2 ack 40 ------- 1 3.0 0.0 20 61
+ 1.964453 2 0 ack 40 ------- 1 3.0 0.0 20 61
- 1.964453 2 0 ack 40 ------- 1 3.0 0.0 20 61
r 1.974613 2 0 ack 40 ------- 1 3.0 0.0 20 61
+ 1.974613 0 2 tcp 1040 ------- 1 0.0 3.0 40 62
- 1.974613 0 2 tcp 1040 ------- 1 0.0 3.0 40 62
r 1.988773 0 2 tcp 1040 ------- 1 0.0 3.0 40 62
+ 1.988773 2 3 tcp 1040 ------- 1 0.0 3.0 40 62
- 2.013467 2 3 tcp 1040 ------- 1 0.0 3.0 22 33
r 2.023467 2 3 tcp 1040 ------- 1 0.0 3.0 21 32
+ 2.023467 3 2 ack 40 ------- 1 3.0 0.0 21 63
- 2.023467 3 2 ack 40 ------- 1 3.0 0.0 21 63
r 2.033787 3 2 ack 40 ------- 1 3.0 0.0 21 63
+ 2.033787 2 0 ack 40 ------- 1 3.0 0.0 21 63
- 2.033787 2 0 ack 40 ------- 1 3.0 0.0 21 63
r 2.043947 2 0 ack 40 ------- 1 3.0 0.0 21 63
+ 2.043947 0 2 tcp 1040 ------- 1 0.0 3.0 41 64
- 2.043947 0 2 tcp 1040 ------- 1 0.0 3.0 41 64
r 2.058107 0 2 tcp 1040 ------- 1 0.0 3.0 41 64
+ 2.058107 2 3 tcp 1040 ------- 1 0.0 3.0 41 64
- 2.0828 2 3 tcp 40 ------- 2 1.0 3.1 0 34
- 2.085467 2 3 tcp 1040 ------- 1 0.0 3.0 23 36
r 2.0928 2 3 tcp 1040 ------- 1 0.0 3.0 22 33
+ 2.0928 3 2 ack 40 ------- 1 3.0 0.0 22 65
- 2.0928 3 2 ack 40 ------- 1 3.0 0.0 22 65
r 2.095467 2 3 tcp 40 ------- 2 1.0 3.1 0 34
+ 2.095467 3 2 ack 40 ------- 2 3.1 1.0 0 66
- 2.095467 3 2 ack 40 ------- 2 3.1 1.0 0 66
r 2.10312 3 2 ack 40 ------- 1 3.0 0.0 22 65
+ 2.10312 2 0 ack 40 ------- 1 3.0 0.0 22 65
- 2.10312 2 0 ack 40 ------- 1 3.0 0.0 22 65
r 2.105787 3 2 ack 40 ------- 2 3.1 1.0 0 66
+ 2.105787 2 1 ack 40 ------- 2 3.1 1.0 0 66
- 2.105787 2 1 ack 40 ------- 2 3.1 1.0 0 66
r 2.11328 2 0 ack 40 ------- 1 3.0 0.0 22 65
+ 2.11328 0 2 tcp 1040 ------- 1 0.0 3.0 42 67
- 2.11328 0 2 tcp 1040 ------- 1 0.0 3.0 42 67
r 2.115947 2 1 ack 40 ------- 2 3.1 1.0 0 66
+ 2.115947 1 2 tcp 1040 ------- 2 1.0 3.1 1 68
- 2.115947 1 2 tcp 1040 ------- 2 1.0 3.1 1 68
+ 2.115947 1 2 tcp 1040 ------- 2 1.0 3.1 2 69
- 2.120107 1 2 tcp 1040 ------- 2 1.0 3.1 2 69
r 2.12744 0 2 tcp 1040 ------- 1 0.0 3.0 42 67
+ 2.12744 2 3 tcp 1040 ------- 1 0.0 3.0 42 67
r 2.130107 1 2 tcp 1040 ------- 2 1.0 3.1 1 68
+ 2.130107 2 3 tcp 1040 ------- 2 1.0 3.1 1 68
r 2.134267 1 2 tcp 1040 ------- 2 1.0 3.1 2 69
+ 2.134267 2 3 tcp 1040 ------- 2 1.0 3.1 2 69
- 2.1548 2 3 tcp 1040 ------- 1 0.0 3.0 24 37
r 2.1648 2 3 tcp 1040 ------- 1 0.0 3.0 23 36
+ 2.1648 3 2 ack 40 ------- 1 3.0 0.0 23 70
- 2.1648 3 2 ack 40 ------- 1 3.0 0.0 23 70
r 2.17512 3 2 ack 40 ------- 1 3.0 0.0 23 70
+ 2.17512 2 0 ack 40 ------- 1 3.0 0.0 23 70
- 2.17512 2 0 ack 40 ------- 1 3.0 0.0 23 70
r 2.18528 2 0 ack 40 ------- 1 3.0 0.0 23 70
+ 2.18528 0 2 tcp 1040 ------- 1 0.0 3.0 43 71
- 2.18528 0 2 tcp 1040 ------- 1 0.0 3.0 43 71
r 2.19944 0 2 tcp 1040 ------- 1 0.0 3.0 43 71
+ 2.19944 2 3 tcp 1040 ------- 1 0.0 3.0 43 71
- 2.224133 2 3 tcp 1040 ------- 1 0.0 3.0 25 39
r 2.234133 2 3 tcp 1040 ------- 1 0.0 3.0 24 37
+ 2.234133 3 2 ack 40 ------- 1 3.0 0.0 24 72
- 2.234133 3 2 ack 40 ------- 1 3.0 0.0 24 72
r 2.244453 3 2 ack 40 ------- 1 3.0 0.0 24 72
+ 2.244453 2 0 ack 40 ------- 1 3.0 0.0 24 72
- 2.244453 2 0 ack 40 ------- 1 3.0 0.0 24 72
r 2.254613 2 0 ack 40 ------- 1 3.0 0.0 24 72
+ 2.254613 0 2 tcp 1040 ------- 1 0.0 3.0 44 73
- 2.254613 0 2 tcp 1040 ------- 1 0.0 3.0 44 73
r 2.268773 0 2 tcp 1040 ------- 1 0.0 3.0 44 73
+ 2.268773 2 3 tcp 1040 ------- 1 0.0 3.0 44 73
- 2.293467 2 3 tcp 1040 ------- 1 0.0 3.0 26 40
r 2.303467 2 3 tcp 1040 ------- 1 0.0 3.0 25 39
+ 2.303467 3 2 ack 40 ------- 1 3.0 0.0 25 74
- 2.303467 3 2 ack 40 ------- 1 3.0 0.0 25 74
r 2.313787 3 2 ack 40 ------- 1 3.0 0.0 25 74
+ 2.313787 2 0 ack 40 ------- 1 3.0 0.0 25 74
- 2.313787 2 0 ack 40 ------- 1 3.0 0.0 25 74
r 2.323947 2 0 ack 40 ------- 1 3.0 0.0 25 74
+ 2.323947 0 2 tcp 1040 ------- 1 0.0 3.0 45 75
- 2.323947 0 2 tcp 1040 ------- 1 0.0 3.0 45 75
r 2.338107 0 2 tcp 1040 ------- 1 0.0 3.0 45 75
+ 2.338107 2 3 tcp 1040 ------- 1 0.0 3.0 45 75
- 2.3628 2 3 tcp 1040 ------- 1 0.0 3.0 27 42
r 2.3728 2 3 tcp 1040 ------- 1 0.0 3.0 26 40
+ 2.3728 3 2 ack 40 ------- 1 3.0 0.0 26 76
- 2.3728 3 2 ack 40 ------- 1 3.0 0.0 26 76
r 2.38312 3 2 ack 40 ------- 1 3.0 0.0 26 76
+ 2.38312 2 0 ack 40 ------- 1 3.0 0.0 26 76
- 2.38312 2 0 ack 40 ------- 1 3.0 0.0 26 76
r 2.39328 2 0 ack 40 ------- 1 3.0 0.0 26 76
+ 2.39328 0 2 tcp 1040 ------- 1 0.0 3.0 46 77
- 2.39328 0 2 tcp 1040 ------- 1 0.0 3.0 46 77
r 2.40744 0 2 tcp 1040 ------- 1 0.0 3.0 46 77
+ 2.40744 2 3 tcp 1040 ------- 1 0.0 3.0 46 77
- 2.432133 2 3 tcp 1040 ------- 1 0.0 3.0 28 43
r 2.442133 2 3 tcp 1040 ------- 1 0.0 3.0 27 42
+ 2.442133 3 2 ack 40 ------- 1 3.0 0.0 27 78
- 2.442133 3 2 ack 40 ------- 1 3.0 0.0 27 78
r 2.452453 3 2 ack 40 ------- 1 3.0 0.0 27 78
+ 2.452453 2 0 ack 40 ------- 1 3.0 0.0 27 78
- 2.452453 2 0 ack 40 ------- 1 3.0 0.0 27 78
r 2.462613 2 0 ack 40 ------- 1 3.0 0.0 27 78
+ 2.462613 0 2 tcp 1040 ------- 1 0.0 3.0 47 79
- 2.462613 0 2 tcp 1040 ------- 1 0.0 3.0 47 79
r 2.476773 0 2 tcp 1040 ------- 1 0.0 3.0 47 79
+ 2.476773 2 3 tcp 1040 ------- 1 0.0 3.0 47 79
- 2.501467 2 3 tcp 1040 ------- 1 0.0 3.0 29 45
r 2.511467 2 3 tcp 1040 ------- 1 0.0 3.0 28 43
+ 2.511467 3 2 ack 40 ------- 1 3.0 0.0 28 80
- 2.511467 3 2 ack 40 ------- 1 3.0 0.0 28 80
r 2.521787 3 2 ack 40 ------- 1 3.0 0.0 28 80
+ 2.521787 2 0 ack 40 ------- 1 3.0 0.0 28 80
- 2.521787 2 0 ack 40 ------- 1 3.0 0.0 28 80
r 2.531947 2 0 ack 40 ------- 1 3.0 0.0 28 80
+ 2.531947 0 2 tcp 1040 ------- 1 0.0 3.0 48 81
- 2.531947 0 2 tcp 1040 ------- 1 0.0 3.0 48 81
r 2.546107 0 2 tcp 1040 ------- 1 0.0 3.0 48 81
+ 2.546107 2 3 tcp 1040 ------- 1 0.0 3.0 48 81
- 2.5708 2 3 tcp 1040 ------- 1 0.0 3.0 30 46
r 2.5808 2 3 tcp 1040 ------- 1 0.0 3.0 29 45
+ 2.5808 3 2 ack 40 ------- 1 3.0 0.0 29 82
- 2.5808 3 2 ack 40 ------- 1 3.0 0.0 29 82
r 2.59112 3 2 ack 40 ------- 1 3.0 0.0 29 82
+ 2.59112 2 0 ack 40 ------- 1 3.0 0.0 29 82
- 2.59112 2 0 ack 40 ------- 1 3.0 0.0 29 82
r 2.60128 2 0 ack 40 ------- 1 3.0 0.0 29 82
+ 2.60128 0 2 tcp 1040 ------- 1 0.0 3.0 49 83
- 2.60128 0 2 tcp 1040 ------- 1 0.0 3.0 49 83
r 2.61544 0 2 tcp 1040 ------- 1 0.0 3.0 49 83
+ 2.61544 2 3 tcp 1040 ------- 1 0.0 3.0 49 83
- 2.640133 2 3 tcp 1040 ------- 1 0.0 3.0 31 48
r 2.650133 2 3 tcp 1040 ------- 1 0.0 3.0 30 46
+ 2.650133 3 2 ack 40 ------- 1 3.0 0.0 30 84
- 2.650133 3 2 ack 40 ------- 1 3.0 0.0 30 84
r 2.660453 3 2 ack 40 ------- 1 3.0 0.0 30 84
+ 2.660453 2 0 ack 40 ------- 1 3.0 0.0 30 84
- 2.660453 2 0 ack 40 ------- 1 3.0 0.0 30 84
r 2.670613 2 0 ack 40 ------- 1 3.0 0.0 30 84
+ 2.670613 0 2 tcp 1040 ------- 1 0.0 3.0 50 85
- 2.670613 0 2 tcp 1040 ------- 1 0.0 3.0 50 85
r 2.684773 0 2 tcp 1040 ------- 1 0.0 3.0 50 85
+ 2.684773 2 3 tcp 1040 ------- 1 0.0 3.0 50 85
- 2.709467 2 3 tcp 1040 ------- 1 0.0 3.0 32 49
r 2.719467 2 3 tcp 1040 ------- 1 0.0 3.0 31 48
+ 2.719467 3 2 ack 40 ------- 1 3.0 0.0 31 86
- 2.719467 3 2 ack 40 ------- 1 3.0 0.0 31 86
r 2.729787 3 2 ack 40 ------- 1 3.0 0.0 31 86
+ 2.729787 2 0 ack 40 ------- 1 3.0 0.0 31 86
- 2.729787 2 0 ack 40 ------- 1 3.0 0.0 31 86
r 2.739947 2 0 ack 40 ------- 1 3.0 0.0 31 86
+ 2.739947 0 2 tcp 1040 ------- 1 0.0 3.0 51 87
- 2.739947 0 2 tcp 1040 ------- 1 0.0 3.0 51 87
r 2.754107 0 2 tcp 1040 ------- 1 0.0 3.0 51 87
+ 2.754107 2 3 tcp 1040 ------- 1 0.0 3.0 51 87
- 2.7788 2 3 tcp 1040 ------- 1 0.0 3.0 33 51
r 2.7888 2 3 tcp 1040 ------- 1 0.0 3.0 32 49
+ 2.7888 3 2 ack 40 ------- 1 3.0 0.0 32 88
- 2.7888 3 2 ack 40 ------- 1 3.0 0.0 32 88
r 2.79912 3 2 ack 40 ------- 1 3.0 0.0 32 88
+ 2.79912 2 0 ack 40 ------- 1 3.0 0.0 32 88
- 2.79912 2 0 ack 40 ------- 1 3.0 0.0 32 88
r 2.80928 2 0 ack 40 ------- 1 3.0 0.0 32 88
+ 2.80928 0 2 tcp 1040 ------- 1 0.0 3.0 52 89
- 2.80928 0 2 tcp 1040 ------- 1 0.0 3.0 52 89
r 2.82344 0 2 tcp 1040 ------- 1 0.0 3.0 52 89
+ 2.82344 2 3 tcp 1040 ------- 1 0.0 3.0 52 89
- 2.848133 2 3 tcp 1040 ------- 1 0.0 3.0 34 52
r 2.858133 2 3 tcp 1040 ------- 1 0.0 3.0 33 51
+ 2.858133 3 2 ack 40 ------- 1 3.0 0.0 33 90
- 2.858133 3 2 ack 40 ------- 1 3.0 0.0 33 90
r 2.868453 3 2 ack 40 ------- 1 3.0 0.0 33 90
+ 2.868453 2 0 ack 40 ------- 1 3.0 0.0 33 90
- 2.868453 2 0 ack 40 ------- 1 3.0 0.0 33 90
r 2.878613 2 0 ack 40 ------- 1 3.0 0.0 33 90
+ 2.878613 0 2 tcp 1040 ------- 1 0.0 3.0 53 91
- 2.878613 0 2 tcp 1040 ------- 1 0.0 3.0 53 91
r 2.892773 0 2 tcp 1040 ------- 1 0.0 3.0 53 91
+ 2.892773 2 3 tcp 1040 ------- 1 0.0 3.0 53 91
- 2.917467 2 3 tcp 1040 ------- 1 0.0 3.0 35 54
r 2.927467 2 3 tcp 1040 ------- 1 0.0 3.0 34 52
+ 2.927467 3 2 ack 40 ------- 1 3.0 0.0 34 92
- 2.927467 3 2 ack 40 ------- 1 3.0 0.0 34 92
r 2.937787 3 2 ack 40 ------- 1 3.0 0.0 34 92
+ 2.937787 2 0 ack 40 ------- 1 3.0 0.0 34 92
- 2.937787 2 0 ack 40 ------- 1 3.0 0.0 34 92
r 2.947947 2 0 ack 40 ------- 1 3.0 0.0 34 92
+ 2.947947 0 2 tcp 1040 ------- 1 0.0 3.0 54 93
- 2.947947 0 2 tcp 1040 ------- 1 0.0 3.0 54 93
r 2.962107 0 2 tcp 1040 ------- 1 0.0 3.0 54 93
+ 2.962107 2 3 tcp 1040 ------- 1 0.0 3.0 54 93
- 2.9868 2 3 tcp 1040 ------- 1 0.0 3.0 36 55
r 2.9968 2 3 tcp 1040 ------- 1 0.0 3.0 35 54
+ 2.9968 3 2 ack 40 ------- 1 3.0 0.0 35 94
- 2.9968 3 2 ack 40 ------- 1 3.0 0.0 35 94
r 3.00712 3 2 ack 40 ------- 1 3.0 0.0 35 94
+ 3.00712 2 0 ack 40 ------- 1 3.0 0.0 35 94
- 3.00712 2 0 ack 40 ------- 1 3.0 0.0 35 94
r 3.01728 2 0 ack 40 ------- 1 3.0 0.0 35 94
+ 3.01728 0 2 tcp 1040 ------- 1 0.0 3.0 55 95
- 3.01728 0 2 tcp 1040 ------- 1 0.0 3.0 55 95
r 3.03144 0 2 tcp 1040 ------- 1 0.0 3.0 55 95
+ 3.03144 2 3 tcp 1040 ------- 1 0.0 3.0 55 95
- 3.056133 2 3 tcp 1040 ------- 1 0.0 3.0 37 57
r 3.066133 2 3 tcp 1040 ------- 1 0.0 3.0 36 55
+ 3.066133 3 2 ack 40 ------- 1 3.0 0.0 36 96
- 3.066133 3 2 ack 40 ------- 1 3.0 0.0 36 96
r 3.076453 3 2 ack 40 ------- 1 3.0 0.0 36 96
+ 3.076453 2 0 ack 40 ------- 1 3.0 0.0 36 96
- 3.076453 2 0 ack 40 ------- 1 3.0 0.0 36 96
r 3.086613 2 0 ack 40 ------- 1 3.0 0.0 36 96
+ 3.086613 0 2 tcp 1040 ------- 1 0.0 3.0 56 97
- 3.086613 0 2 tcp 1040 ------- 1 0.0 3.0 56 97
r 3.100773 0 2 tcp 1040 ------- 1 0.0 3.0 56 97
+ 3.100773 2 3 tcp 1040 ------- 1 0.0 3.0 56 97
- 3.125467 2 3 tcp 1040 ------- 1 0.0 3.0 38 58
r 3.135467 2 3 tcp 1040 ------- 1 0.0 3.0 37 57
+ 3.135467 3 2 ack 40 ------- 1 3.0 0.0 37 98
- 3.135467 3 2 ack 40 ------- 1 3.0 0.0 37 98
r 3.145787 3 2 ack 40 ------- 1 3.0 0.0 37 98
+ 3.145787 2 0 ack 40 ------- 1 3.0 0.0 37 98
- 3.145787 2 0 ack 40 ------- 1 3.0 0.0 37 98
r 3.155947 2 0 ack 40 ------- 1 3.0 0.0 37 98
+ 3.155947 0 2 tcp 1040 ------- 1 0.0 3.0 57 99
- 3.155947 0 2 tcp 1040 ------- 1 0.0 3.0 57 99
r 3.170107 0 2 tcp 1040 ------- 1 0.0 3.0 57 99
+ 3.170107 2 3 tcp 1040 ------- 1 0.0 3.0 57 99
- 3.1948 2 3 tcp 1040 ------- 1 0.0 3.0 39 60
r 3.2048 2 3 tcp 1040 ------- 1 0.0 3.0 38 58
+ 3.2048 3 2 ack 40 ------- 1 3.0 0.0 38 100
- 3.2048 3 2 ack 40 ------- 1 3.0 0.0 38 100
r 3.21512 3 2 ack 40 ------- 1 3.0 0.0 38 100
+ 3.21512 2 0 ack 40 ------- 1 3.0 0.0 38 100
- 3.21512 2 0 ack 40 ------- 1 3.0 0.0 38 100
r 3.22528 2 0 ack 40 ------- 1 3.0 0.0 38 100
+ 3.22528 0 2 tcp 1040 ------- 1 0.0 3.0 58 101
- 3.22528 0 2 tcp 1040 ------- 1 0.0 3.0 58 101
r 3.23944 0 2 tcp 1040 ------- 1 0.0 3.0 58 101
+ 3.23944 2 3 tcp 1040 ------- 1 0.0 3.0 58 101
- 3.264133 2 3 tcp 1040 ------- 1 0.0 3.0 40 62
r 3.274133 2 3 tcp 1040 ------- 1 0.0 3.0 39 60
+ 3.274133 3 2 ack 40 ------- 1 3.0 0.0 39 102
- 3.274133 3 2 ack 40 ------- 1 3.0 0.0 39 102
r 3.284453 3 2 ack 40 ------- 1 3.0 0.0 39 102
+ 3.284453 2 0 ack 40 ------- 1 3.0 0.0 39 102
- 3.284453 2 0 ack 40 ------- 1 3.0 0.0 39 102
r 3.294613 2 0 ack 40 ------- 1 3.0 0.0 39 102
+ 3.294613 0 2 tcp 1040 ------- 1 0.0 3.0 59 103
- 3.294613 0 2 tcp 1040 ------- 1 0.0 3.0 59 103
r 3.308773 0 2 tcp 1040 ------- 1 0.0 3.0 59 103
+ 3.308773 2 3 tcp 1040 ------- 1 0.0 3.0 59 103
- 3.333467 2 3 tcp 1040 ------- 1 0.0 3.0 41 64
r 3.343467 2 3 tcp 1040 ------- 1 0.0 3.0 40 62
+ 3.343467 3 2 ack 40 ------- 1 3.0 0.0 40 104
- 3.343467 3 2 ack 40 ------- 1 3.0 0.0 40 104
r 3.353787 3 2 ack 40 ------- 1 3.0 0.0 40 104
+ 3.353787 2 0 ack 40 ------- 1 3.0 0.0 40 104
- 3.353787 2 0 ack 40 ------- 1 3.0 0.0 40 104
r 3.363947 2 0 ack 40 ------- 1 3.0 0.0 40 104
+ 3.363947 0 2 tcp 1040 ------- 1 0.0 3.0 60 105
- 3.363947 0 2 tcp 1040 ------- 1 0.0 3.0 60 105
r 3.378107 0 2 tcp 1040 ------- 1 0.0 3.0 60 105
+ 3.378107 2 3 tcp 1040 ------- 1 0.0 3.0 60 105
- 3.4028 2 3 tcp 1040 ------- 1 0.0 3.0 42 67
r 3.4128 2 3 tcp 1040 ------- 1 0.0 3.0 41 64
+ 3.4128 3 2 ack 40 ------- 1 3.0 0.0 41 106
- 3.4128 3 2 ack 40 ------- 1 3.0 0.0 41 106
r 3.42312 3 2 ack 40 ------- 1 3.0 0.0 41 106
+ 3.42312 2 0 ack 40 ------- 1 3.0 0.0 41 106
- 3.42312 2 0 ack 40 ------- 1 3.0 0.0 41 106
r 3.43328 2 0 ack 40 ------- 1 3.0 0.0 41 106
+ 3.43328 0 2 tcp 1040 ------- 1 0.0 3.0 61 107
- 3.43328 0 2 tcp 1040 ------- 1 0.0 3.0 61 107
r 3.44744 0 2 tcp 1040 ------- 1 0.0 3.0 61 107
+ 3.44744 2 3 tcp 1040 ------- 1 0.0 3.0 61 107
- 3.472133 2 3 tcp 1040 ------- 2 1.0 3.1 1 68
r 3.482133 2 3 tcp 1040 ------- 1 0.0 3.0 42 67
+ 3.482133 3 2 ack 40 ------- 1 3.0 0.0 42 108
- 3.482133 3 2 ack 40 ------- 1 3.0 0.0 42 108
r 3.492453 3 2 ack 40 ------- 1 3.0 0.0 42 108
+ 3.492453 2 0 ack 40 ------- 1 3.0 0.0 42 108
- 3.492453 2 0 ack 40 ------- 1 3.0 0.0 42 108
r 3.502613 2 0 ack 40 ------- 1 3.0 0.0 42 108
+ 3.502613 0 2 tcp 1040 ------- 1 0.0 3.0 62 109
- 3.502613 0 2 tcp 1040 ------- 1 0.0 3.0 62 109
r 3.516773 0 2 tcp 1040 ------- 1 0.0 3.0 62 109
+ 3.516773 2 3 tcp 1040 ------- 1 0.0 3.0 62 109
- 3.541467 2 3 tcp 1040 ------- 2 1.0 3.1 2 69
r 3.551467 2 3 tcp 1040 ------- 2 1.0 3.1 1 68
+ 3.551467 3 2 ack 40 ------- 2 3.1 1.0 1 110
- 3.551467 3 2 ack 40 ------- 2 3.1 1.0 1 110
r 3.561787 3 2 ack 40 ------- 2 3.1 1.0 1 110
+ 3.561787 2 1 ack 40 ------- 2 3.1 1.0 1 110
- 3.561787 2 1 ack 40 ------- 2 3.1 1.0 1 110
r 3.571947 2 1 ack 40 ------- 2 3.1 1.0 1 110
+ 3.571947 1 2 tcp 1040 ------- 2 1.0 3.1 3 111
- 3.571947 1 2 tcp 1040 ------- 2 1.0 3.1 3 111
+ 3.571947 1 2 tcp 1040 ------- 2 1.0 3.1 4 112
- 3.576107 1 2 tcp 1040 ------- 2 1.0 3.1 4 112
r 3.586107 1 2 tcp 1040 ------- 2 1.0 3.1 3 111
+ 3.586107 2 3 tcp 1040 ------- 2 1.0 3.1 3 111
r 3.590267 1 2 tcp 1040 ------- 2 1.0 3.1 4 112
+ 3.590267 2 3 tcp 1040 ------- 2 1.0 3.1 4 112
- 3.6108 2 3 tcp 1040 ------- 1 0.0 3.0 43 71
r 3.6208 2 3 tcp 1040 ------- 2 1.0 3.1 2 69
+ 3.6208 3 2 ack 40 ------- 2 3.1 1.0 2 113
- 3.6208 3 2 ack 40 ------- 2 3.1 1.0 2 113
r 3.63112 3 2 ack 40 ------- 2 3.1 1.0 2 113
+ 3.63112 2 1 ack 40 ------- 2 3.1 1.0 2 113
- 3.63112 2 1 ack 40 ------- 2 3.1 1.0 2 113
r 3.64128 2 1 ack 40 ------- 2 3.1 1.0 2 113
- 3.680133 2 3 tcp 1040 ------- 1 0.0 3.0 44 73
r 3.690133 2 3 tcp 1040 ------- 1 0.0 3.0 43 71
+ 3.690133 3 2 ack 40 ------- 1 3.0 0.0 43 114
- 3.690133 3 2 ack 40 ------- 1 3.0 0.0 43 114
r 3.700453 3 2 ack 40 ------- 1 3.0 0.0 43 114