V -t * -v 1.0a5 -a 0
A -t * -n 1 -p 0 -o 0x7fffffff -c 30 -a 1
A -t * -h 1 -m 1073741823 -s 0
n -t * -a 0 -s 0 -S UP -v circle -c black -i black
n -t * -a 1 -s 1 -S UP -v circle -c black -i black
n -t * -a 2 -s 2 -S UP -v circle -c black -i black
l -t * -s 0 -d 1 -S UP -r 100000 -D 0.01 -c black
l -t * -s 1 -d 2 -S UP -r 100000 -D 0.01 -c black
+ -t 0.5 -s 0 -d 1 -p cbr -e 500 -c 0 -i 0 -a 0 -x {0.0 2.0 0 ------- null}
- -t 0.5 -s 0 -d 1 -p cbr -e 500 -c 0 -i 0 -a 0 -x {0.0 2.0 0 ------- null}
h -t 0.5 -s 0 -d 1 -p cbr -e 500 -c 0 -i 0 -a 0 -x {0.0 2.0 -1 ------- null}
r -t 0.55 -s 0 -d 1 -p cbr -e 500 -c 0 -i 0 -a 0 -x {0.0 2.0 0 ------- null}
+ -t 0.55 -s 1 -d 2 -p cbr -e 500 -c 0 -i 0 -a 0 -x {0.0 2.0 0 ------- null}
- -t 0.55 -s 1 -d 2 -p cbr -e 500 -c 0 -i 0 -a 0 -x {0.0 2.0 0 ------- null}
h -t 0.55 -s 1 -d 2 -p cbr -e 500 -c 0 -i 0 -a 0 -x {0.0 2.0 -1 ------- null}
+ -t 0.55 -s 0 -d 1 -p cbr -e 500 -c 0 -i 1 -a 0 -x {0.0 2.0 1 ------- null}
- -t 0.55 -s 0 -d 1 -p cbr -e 500 -c 0 -i 1 -a 0 -x {0.0 2.0 1 ------- null}
h -t 0.55 -s 0 -d 1 -p cbr -e 500 -c 0 -i 1 -a 0 -x {0.0 2.0 -1 ------- null}
r -t 0.6 -s 1 -d 2 -p cbr -e 500 -c 0 -i 0 -a 0 -x {0.0 2.0 0 ------- null}
r -t 0.6 -s 0 -d 1 -p cbr -e 500 -c 0 -i 1 -a 0 -x {0.0 2.0 1 ------- null}
+ -t 0.6 -s 1 -d 2 -p cbr -e 500 -c 0 -i 1 -a 0 -x {0.0 2.0 1 ------- null}
- -t 0.6 -s 1 -d 2 -p cbr -e 500 -c 0 -i 1 -a 0 -x {0.0 2.0 1 ------- null}
h -t 0.6 -s 1 -d 2 -p cbr -e 500 -c 0 -i 1 -a 0 -x {0.0 2.0 -1 ------- null}
+ -t 0.6 -s 0 -d 1 -p cbr -e 500 -c 0 -i 2 -a 0 -x {0.0 2.0 2 ------- null}
- -t 0.6 -s 0 -d 1 -p cbr -e 500 -c 0 -i 2 -a 0 -x {0.0 2.0 2 ------- null}
h -t 0.6 -s 0 -d 1 -p cbr -e 500 -c 0 -i 2 -a 0 -x {0.0 2.0 -1 ------- null}
r -t 0.65 -s 1 -d 2 -p cbr -e 500 -c 0 -i 1 -a 0 -x {0.0 2.0 1 ------- null}
r -t 0.65 -s 0 -d 1 -p cbr -e 500 -c 0 -i 2 -a 0 -x {0.0 2.0 2 ------- null}
+ -t 0.65 -s 1 -d 2 -p cbr -e 500 -c 0 -i 2 -a 0 -x {0.0 2.0 2 ------- null}
- -t 0.65 -s 1 -d 2 -p cbr -e 500 -c 0 -i 2 -a 0 -x {0.0 2.0 2 ------- null}
h -t 0.65 -s 1 -d 2 -p cbr -e 500 -c 0 -i 2 -a 0 -x {0.0 2.0 -1 ------- null}
+ -t 0.65 -s 0 -d 1 -p cbr -e 500 -c 0 -i 3 -a 0 -x {0.0 2.0 3 ------- null}
- -t 0.65 -s 0 -d 1 -p cbr -e 500 -c 0 -i 3 -a 0 -x {0.0 2.0 3 ------- null}
h -t 0.65 -s 0 -d 1 -p cbr -e 500 -c 0 -i 3 -a 0 -x {0.0 2.0 -1 ------- null}
r -t 0.7 -s 1 -d 2 -p cbr -e 500 -c 0 -i 2 -a 0 -x {0.0 2.0 2 ------- null}
r -t 0.7 -s 0 -d 1 -p cbr -e 500 -c 0 -i 3 -a 0 -x {0.0 2.0 3 ------- null}
+ -t 0.7 -s 1 -d 2 -p cbr -e 500 -c 0 -i 3 -a 0 -x {0.0 2.0 3 ------- null}
- -t 0.7 -s 1 -d 2 -p cbr -e 500 -c 0 -i 3 -a 0 -x {0.0 2.0 3 ------- null}
h -t 0.7 -s 1 -d 2 -p cbr -e 500 -c 0 -i 3 -a 0 -x {0.0 2.0 -1 ------- null}
+ -t 0.7 -s 0 -d 1 -p cbr -e 500 -c 0 -i 4 -a 0 -x {0.0 2.0 4 ------- null}
- -t 0.7 -s 0 -d 1 -p cbr -e 500 -c 0 -i 4 -a 0 -x {0.0 2.0 4 ------- null}
h -t 0.7 -s 0 -d 1 -p cbr -e 500 -c 0 -i 4 -a 0 -x {0.0 2.0 -1 ------- null}
r -t 0.75 -s 1 -d 2 -p cbr -e 500 -c 0 -i 3 -a 0 -x {0.0 2.0 3 ------- null}
r -t 0.75 -s 0 -d 1 -p cbr -e 500 -c 0 -i 4 -a 0 -x {0.0 2.0 4 ------- null}
+ -t 0.75 -s 1 -d 2 -p cbr -e 500 -c 0 -i 4 -a 0 -x {0.0 2.0 4 ------- null}
- -t 0.75 -s 1 -d 2 -p cbr -e 500 -c 0 -i 4 -a 0 -x {0.0 2.0 4 ------- null}
h -t 0.75 -s 1 -d 2 -p cbr -e 500 -c 0 -i 4 -a 0 -x {0.0 2.0 -1 ------- null}
+ -t 0.75 -s 0 -d 1 -p cbr -e 500 -c 0 -i 5 -a 0 -x {0.0 2.0 5 ------- null}
- -t 0.75 -s 0 -d 1 -p cbr -e 500 -c 0 -i 5 -a 0 -x {0.0 2.0 5 ------- null}
h -t 0.75 -s 0 -d 1 -p cbr -e 500 -c 0 -i 5 -a 0 -x {0.0 2.0 -1 ------- null}
r -t 0.8 -s 1 -d 2 -p cbr -e 500 -c 0 -i 4 -a 0 -x {0.0 2.0 4 ------- null}
r -t 0.8 -s 0 -d 1 -p cbr -e 500 -c 0 -i 5 -a 0 -x {0.0 2.0 5 ------- null}
+ -t 0.8 -s 1 -d 2 -p cbr -e 500 -c 0 -i 5 -a 0 -x {0.0 2.0 5 ------- null}
- -t 0.8 -s 1 -d 2 -p cbr -e 500 -c 0 -i 5 -a 0 -x {0.0 2.0 5 ------- null}
h -t 0.8 -s 1 -d 2 -p cbr -e 500 -c 0 -i 5 -a 0 -x {0.0 2.0 -1 ------- null}
+ -t 0.8 -s 0 -d 1 -p cbr -e 500 -c 0 -i 6 -a 0 -x {0.0 2.0 6 ------- null}
- -t 0.8 -s 0 -d 1 -p cbr -e 500 -c 0 -i 6 -a 0 -x {0.0 2.0 6 ------- null}
h -t 0.8 -s 0 -d 1 -p cbr -e 500 -c 0 -i 6 -a 0 -x {0.0 2.0 -1 ------- null}
r -t 0.85 -s 1 -d 2 -p cbr -e 500 -c 0 -i 5 -a 0 -x {0.0 2.0 5 ------- null}
r -t 0.85 -s 0 -d 1 -p cbr -e 500 -c 0 -i 6 -a 0 -x {0.0 2.0 6 ------- null}
+ -t 0.85 -s 1 -d 2 -p cbr -e 500 -c 0 -i 6 -a 0 -x {0.0 2.0 6 ------- null}
- -t 0.85 -s 1 -d 2 -p cbr -e 500 -c 0 -i 6 -a 0 -x {0.0 2.0 6 ------- null}
h -t 0.85 -s 1 -d 2 -p cbr -e 500 -c 0 -i 6 -a 0 -x {0.0 2.0 -1 ------- null}
+ -t 0.85 -s 0 -d 1 -p cbr -e 500 -c 0 -i 7 -a 0 -x {0.0 2.0 7 ------- null}
- -t 0.85 -s 0 -d 1 -p cbr -e 500 -c 0 -i 7 -a 0 -x {0.0 2.0 7 ------- null}
h -t 0.85 -s 0 -d 1 -p cbr -e 500 -c 0 -i 7 -a 0 -x {0.0 2.0 -1 ------- null}
r -t 0.9 -s 1 -d 2 -p cbr -e 500 -c 0 -i 6 -a 0 -x {0.0 2.0 6 ------- null}
r -t 0.9 -s 0 -d 1 -p cbr -e 500 -c 0 -i 7 -a 0 -x {0.0 2.0 7 ------- null}
+ -t 0.9 -s 1 -d 2 -p cbr -e 500 -c 0 -i 7 -a 0 -x {0.0 2.0 7 ------- null}
- -t 0.9 -s 1 -d 2 -p cbr -e 500 -c 0 -i 7 -a 0 -x {0.0 2.0 7 ------- null}
h -t 0.9 -s 1 -d 2 -p cbr -e 500 -c 0 -i 7 -a 0 -x {0.0 2.0 -1 ------- null}
+ -t 0.9 -s 0 -d 1 -p cbr -e 500 -c 0 -i 8 -a 0 -x {0.0 2.0 8 ------- null}
- -t 0.9 -s 0 -d 1 -p cbr -e 500 -c 0 -i 8 -a 0 -x {0.0 2.0 8 ------- null}
h -t 0.9 -s 0 -d 1 -p cbr -e 500 -c 0 -i 8 -a 0 -x {0.0 2.0 -1 ------- null}
r -t 0.95 -s 1 -d 2 -p cbr -e 500 -c 0 -i 7 -a 0 -x {0.0 2.0 7 ------- null}
r -t 0.95 -s 0 -d 1 -p cbr -e 500 -c 0 -i 8 -a 0 -x {0.0 2.0 8 ------- null}
+ -t 0.95 -s 1 -d 2 -p cbr -e 500 -c 0 -i 8 -a 0 -x {0.0 2.0 8 ------- null}
- -t 0.95 -s 1 -d 2 -p cbr -e 500 -c 0 -i 8 -a 0 -x {0.0 2.0 8 ------- null}
h -t 0.95 -s 1 -d 2 -p cbr -e 500 -c 0 -i 8 -a 0 -x {0.0 2.0 -1 ------- null}
+ -t 0.95 -s 0 -d 1 -p cbr -e 500 -c 0 -i 9 -a 0 -x {0.0 2.0 9 ------- null}
- -t 0.95 -s 0 -d 1 -p cbr -e 500 -c 0 -i 9 -a 0 -x {0.0 2.0 9 ------- null}
h -t 0.95 -s 0 -d 1 -p cbr -e 500 -c 0 -i 9 -a 0 -x {0.0 2.0 -1 ------- null}
r -t 1 -s 1 -d 2 -p cbr -e 500 -c 0 -i 8 -a 0 -x {0.0 2.0 8 ------- null}
r -t 1 -s 0 -d 1 -p cbr -e 500 -c 0 -i 9 -a 0 -x {0.0 2.0 9 ------- null}
+ -t 1 -s 1 -d 2 -p cbr -e 500 -c 0 -i 9 -a 0 -x {0.0 2.0 9 ------- null}
- -t 1 -s 1 -d 2 -p cbr -e 500 -c 0 -i 9 -a 0 -x {0.0 2.0 9 ------- null}
h -t 1 -s 1 -d 2 -p cbr -e 500 -c 0 -i 9 -a 0 -x {0.0 2.0 -1 ------- null}
+ -t 1 -s 0 -d 1 -p cbr -e 500 -c 0 -i 10 -a 0 -x {0.0 2.0 10 ------- null}
- -t 1 -s 0 -d 1 -p cbr -e 500 -c 0 -i 10 -a 0 -x {0.0 2.0 10 ------- null}
h -t 1 -s 0 -d 1 -p cbr -e 500 -c 0 -i 10 -a 0 -x {0.0 2.0 -1 ------- null}
r -t 1.05 -s 1 -d 2 -p cbr -e 500 -c 0 -i 9 -a 0 -x {0.0 2.0 9 ------- null}
r -t 1.05 -s 0 -d 1 -p cbr -e 500 -c 0 -i 10 -a 0 -x {0.0 2.0 10 ------- null}
+ -t 1.05 -s 1 -d 2 -p cbr -e 500 -c 0 -i 10 -a 0 -x {0.0 2.0 10 ------- null}
- -t 1.05 -s 1 -d 2 -p cbr -e 500 -c 0 -i 10 -a 0 -x {0.0 2.0 10 ------- null}
h -t 1.05 -s 1 -d 2 -p cbr -e 500 -c 0 -i 10 -a 0 -x {0.0 2.0 -1 ------- null}
+ -t 1.05 -s 0 -d 1 -p cbr -e 500 -c 0 -i 11 -a 0 -x {0.0 2.0 11 ------- null}
- -t 1.05 -s 0 -d 1 -p cbr -e 500 -c 0 -i 11 -a 0 -x {0.0 2.0 11 ------- null}
h -t 1.05 -s 0 -d 1 -p cbr -e 500 -c 0 -i 11 -a 0 -x {0.0 2.0 -1 ------- null}
r -t 1.1 -s 1 -d 2 -p cbr -e 500 -c 0 -i 10 -a 0 -x {0.0 2.0 10 ------- null}
r -t 1.1 -s 0 -d 1 -p cbr -e 500 -c 0 -i 11 -a 0 -x {0.0 2.0 11 ------- null}
+ -t 1.1 -s 1 -d 2 -p cbr -e 500 -c 0 -i 11 -a 0 -x {0.0 2.0 11 ------- null}
- -t 1.1 -s 1 -d 2 -p cbr -e 500 -c 0 -i 11 -a 0 -x {0.0 2.0 11 ------- null}
h -t 1.1 -s 1 -d 2 -p cbr -e 500 -c 0 -i 11 -a 0 -x {0.0 2.0 -1 ------- null}
+ -t 1.1 -s 0 -d 1 -p cbr -e 500 -c 0 -i 12 -a 0 -x {0.0 2.0 12 ------- null}
- -t 1.1 -s 0 -d 1 -p cbr -e 500 -c 0 -i 12 -a 0 -x {0.0 2.0 12 ------- null}
h -t 1.1 -s 0 -d 1 -p cbr -e 500 -c 0 -i 12 -a 0 -x {0.0 2.0 -1 ------- null}
r -t 1.15 -s 1 -d 2 -p cbr -e 500 -c 0 -i 11 -a 0 -x {0.0 2.0 11 ------- null}
r -t 1.15 -s 0 -d 1 -p cbr -e 500 -c 0 -i 12 -a 0 -x {0.0 2.0 12 ------- null}
+ -t 1.15 -s 1 -d 2 -p cbr -e 500 -c 0 -i 12 -a 0 -x {0.0 2.0 12 ------- null}
- -t 1.15 -s 1 -d 2 -p cbr -e 500 -c 0 -i 12 -a 0 -x {0.0 2.0 12 ------- null}
h -t 1.15 -s 1 -d 2 -p cbr -e 500 -c 0 -i 12 -a 0 -x {0.0 2.0 -1 ------- null}
+ -t 1.15 -s 0 -d 1 -p cbr -e 500 -c 0 -i 13 -a 0 -x {0.0 2.0 13 ------- null}
- -t 1.15 -s 0 -d 1 -p cbr -e 500 -c 0 -i 13 -a 0 -x {0.0 2.0 13 ------- null}
h -t 1.15 -s 0 -d 1 -p cbr -e 500 -c 0 -i 13 -a 0 -x {0.0 2.0 -1 ------- null}
r -t 1.2 -s 1 -d 2 -p cbr -e 500 -c 0 -i 12 -a 0 -x {0.0 2.0 12 ------- null}
r -t 1.2 -s 0 -d 1 -p cbr -e 500 -c 0 -i 13 -a 0 -x {0.0 2.0 13 ------- null}
+ -t 1.2 -s 1 -d 2 -p cbr -e 500 -c 0 -i 13 -a 0 -x {0.0 2.0 13 ------- null}
- -t 1.2 -s 1 -d 2 -p cbr -e 500 -c 0 -i 13 -a 0 -x {0.0 2.0 13 ------- null}
h -t 1.2 -s 1 -d 2 -p cbr -e 500 -c 0 -i 13 -a 0 -x {0.0 2.0 -1 ------- null}
+ -t 1.2 -s 0 -d 1 -p cbr -e 500 -c 0 -i 14 -a 0 -x {0.0 2.0 14 ------- null}
- -t 1.2 -s 0 -d 1 -p cbr -e 500 -c 0 -i 14 -a 0 -x {0.0 2.0 14 ------- null}
h -t 1.2 -s 0 -d 1 -p cbr -e 500 -c 0 -i 14 -a 0 -x {0.0 2.0 -1 ------- null}
r -t 1.25 -s 1 -d 2 -p cbr -e 500 -c 0 -i 13 -a 0 -x {0.0 2.0 13 ------- null}
r -t 1.25 -s 0 -d 1 -p cbr -e 500 -c 0 -i 14 -a 0 -x {0.0 2.0 14 ------- null}
+ -t 1.25 -s 1 -d 2 -p cbr -e 500 -c 0 -i 14 -a 0 -x {0.0 2.0 14 ------- null}
- -t 1.25 -s 1 -d 2 -p cbr -e 500 -c 0 -i 14 -a 0 -x {0.0 2.0 14 ------- null}
h -t 1.25 -s 1 -d 2 -p cbr -e 500 -c 0 -i 14 -a 0 -x {0.0 2.0 -1 ------- null}
+ -t 1.25 -s 0 -d 1 -p cbr -e 500 -c 0 -i 15 -a 0 -x {0.0 2.0 15 ------- null}
- -t 1.25 -s 0 -d 1 -p cbr -e 500 -c 0 -i 15 -a 0 -x {0.0 2.0 15 ------- null}
h -t 1.25 -s 0 -d 1 -p cbr -e 500 -c 0 -i 15 -a 0 -x {0.0 2.0 -1 ------- null}
r -t 1.3 -s 1 -d 2 -p cbr -e 500 -c 0 -i 14 -a 0 -x {0.0 2.0 14 ------- null}
r -t 1.3 -s 0 -d 1 -p cbr -e 500 -c 0 -i 15 -a 0 -x {0.0 2.0 15 ------- null}
+ -t 1.3 -s 1 -d 2 -p cbr -e 500 -c 0 -i 15 -a 0 -x {0.0 2.0 15 ------- null}
- -t 1.3 -s 1 -d 2 -p cbr -e 500 -c 0 -i 15 -a 0 -x {0.0 2.0 15 ------- null}
h -t 1.3 -s 1 -d 2 -p cbr -e 500 -c 0 -i 15 -a 0 -x {0.0 2.0 -1 ------- null}
+ -t 1.3 -s 0 -d 1 -p cbr -e 500 -c 0 -i 16 -a 0 -x {0.0 2.0 16 ------- null}
- -t 1.3 -s 0 -d 1 -p cbr -e 500 -c 0 -i 16 -a 0 -x {0.0 2.0 16 ------- null}
h -t 1.3 -s 0 -d 1 -p cbr -e 500 -c 0 -i 16 -a 0 -x {0.0 2.0 -1 ------- null}
r -t 1.35 -s 1 -d 2 -p cbr -e 500 -c 0 -i 15 -a 0 -x {0.0 2.0 15 ------- null}
r -t 1.35 -s 0 -d 1 -p cbr -e 500 -c 0 -i 16 -a 0 -x {0.0 2.0 16 ------- null}
+ -t 1.35 -s 1 -d 2 -p cbr -e 500 -c 0 -i 16 -a 0 -x {0.0 2.0 16 ------- null}
- -t 1.35 -s 1 -d 2 -p cbr -e 500 -c 0 -i 16 -a 0 -x {0.0 2.0 16 ------- null}
h -t 1.35 -s 1 -d 2 -p cbr -e 500 -c 0 -i 16 -a 0 -x {0.0 2.0 -1 ------- null}
+ -t 1.35 -s 0 -d 1 -p cbr -e 500 -c 0 -i 17 -a 0 -x {0.0 2.0 17 ------- null}
- -t 1.35 -s 0 -d 1 -p cbr -e 500 -c 0 -i 17 -a 0 -x {0.0 2.0 17 ------- null}
h -t 1.35 -s 0 -d 1 -p cbr -e 500 -c 0 -i 17 -a 0 -x {0.0 2.0 -1 ------- null}
r -t 1.4 -s 1 -d 2 -p cbr -e 500 -c 0 -i 16 -a 0 -x {0.0 2.0 16 ------- null}
r -t 1.4 -s 0 -d 1 -p cbr -e 500 -c 0 -i 17 -a 0 -x {0.0 2.0 17 ------- null}
+ -t 1.4 -s 1 -d 2 -p cbr -e 500 -c 0 -i 17 -a 0 -x {0.0 2.0 17 ------- null}
- -t 1.4 -s 1 -d 2 -p cbr -e 500 -c 0 -i 17 -a 0 -x {0.0 2.0 17 ------- null}
h -t 1.4 -s 1 -d 2 -p cbr -e 500 -c 0 -i 17 -a 0 -x {0.0 2.0 -1 ------- null}
+ -t 1.4 -s 0 -d 1 -p cbr -e 500 -c 0 -i 18 -a 0 -x {0.0 2.0 18 ------- null}
- -t 1.4 -s 0 -d 1 -p cbr -e 500 -c 0 -i 18 -a 0 -x {0.0 2.0 18 ------- null}
h -t 1.4 -s 0 -d 1 -p cbr -e 500 -c 0 -i 18 -a 0 -x {0.0 2.0 -1 ------- null}
r -t 1.45 -s 1 -d 2 -p cbr -e 500 -c 0 -i 17 -a 0 -x {0.0 2.0 17 ------- null}
r -t 1.45 -s 0 -d 1 -p cbr -e 500 -c 0 -i 18 -a 0 -x {0.0 2.0 18 ------- null}
+ -t 1.45 -s 1 -d 2 -p cbr -e 500 -c 0 -i 18 -a 0 -x {0.0 2.0 18 ------- null}
- -t 1.45 -s 1 -d 2 -p cbr -e 500 -c 0 -i 18 -a 0 -x {0.0 2.0 18 ------- null}
h -t 1.45 -s 1 -d 2 -p cbr -e 500 -c 0 -i 18 -a 0 -x {0.0 2.0 -1 ------- null}
+ -t 1.45 -s 0 -d 1 -p cbr -e 500 -c 0 -i 19 -a 0 -x {0.0 2.0 19 ------- null}
- -t 1.45 -s 0 -d 1 -p cbr -e 500 -c 0 -i 19 -a 0 -x {0.0 2.0 19 ------- null}
h -t 1.45 -s 0 -d 1 -p cbr -e 500 -c 0 -i 19 -a 0 -x {0.0 2.0 -1 ------- null}
r -t 1.5 -s 1 -d 2 -p cbr -e 500 -c 0 -i 18 -a 0 -x {0.0 2.0 18 ------- null}
r -t 1.5 -s 0 -d 1 -p cbr -e 500 -c 0 -i 19 -a 0 -x {0.0 2.0 19 ------- null}
+ -t 1.5 -s 1 -d 2 -p cbr -e 500 -c 0 -i 19 -a 0 -x {0.0 2.0 19 ------- null}
- -t 1.5 -s 1 -d 2 -p cbr -e 500 -c 0 -i 19 -a 0 -x {0.0 2.0 19 ------- null}
h -t 1.5 -s 1 -d 2 -p cbr -e 500 -c 0 -i 19 -a 0 -x {0.0 2.0 -1 ------- null}
+ -t 1.5 -s 0 -d 1 -p cbr -e 500 -c 0 -i 20 -a 0 -x {0.0 2.0 20 ------- null}
- -t 1.5 -s 0 -d 1 -p cbr -e 500 -c 0 -i 20 -a 0 -x {0.0 2.0 20 ------- null}
h -t 1.5 -s 0 -d 1 -p cbr -e 500 -c 0 -i 20 -a 0 -x {0.0 2.0 -1 ------- null}
r -t 1.55 -s 1 -d 2 -p cbr -e 500 -c 0 -i 19 -a 0 -x {0.0 2.0 19 ------- null}
r -t 1.55 -s 0 -d 1 -p cbr -e 500 -c 0 -i 20 -a 0 -x {0.0 2.0 20 ------- null}
+ -t 1.55 -s 1 -d 2 -p cbr -e 500 -c 0 -i 20 -a 0 -x {0.0 2.0 20 ------- null}
- -t 1.55 -s 1 -d 2 -p cbr -e 500 -c 0 -i 20 -a 0 -x {0.0 2.0 20 ------- null}
h -t 1.55 -s 1 -d 2 -p cbr -e 500 -c 0 -i 20 -a 0 -x {0.0 2.0 -1 ------- null}
+ -t 1.55 -s 0 -d 1 -p cbr -e 500 -c 0 -i 21 -a 0 -x {0.0 2.0 21 ------- null}
- -t 1.55 -s 0 -d 1 -p cbr -e 500 -c 0 -i 21 -a 0 -x {0.0 2.0 21 ------- null}
h -t 1.55 -s 0 -d 1 -p cbr -e 500 -c 0 -i 21 -a 0 -x {0.0 2.0 -1 ------- null}
r -t 1.6 -s 1 -d 2 -p cbr -e 500 -c 0 -i 20 -a 0 -x {0.0 2.0 20 ------- null}
r -t 1.6 -s 0 -d 1 -p cbr -e 500 -c 0 -i 21 -a 0 -x {0.0 2.0 21 ------- null}
+ -t 1.6 -s 1 -d 2 -p cbr -e 500 -c 0 -i 21 -a 0 -x {0.0 2.0 21 ------- null}
- -t 1.6 -s 1 -d 2 -p cbr -e 500 -c 0 -i 21 -a 0 -x {0.0 2.0 21 ------- null}
h -t 1.6 -s 1 -d 2 -p cbr -e 500 -c 0 -i 21 -a 0 -x {0.0 2.0 -1 ------- null}
+ -t 1.6 -s 0 -d 1 -p cbr -e 500 -c 0 -i 22 -a 0 -x {0.0 2.0 22 ------- null}
- -t 1.6 -s 0 -d 1 -p cbr -e 500 -c 0 -i 22 -a 0 -x {0.0 2.0 22 ------- null}
h -t 1.6 -s 0 -d 1 -p cbr -e 500 -c 0 -i 22 -a 0 -x {0.0 2.0 -1 ------- null}
r -t 1.65 -s 1 -d 2 -p cbr -e 500 -c 0 -i 21 -a 0 -x {0.0 2.0 21 ------- null}
r -t 1.65 -s 0 -d 1 -p cbr -e 500 -c 0 -i 22 -a 0 -x {0.0 2.0 22 ------- null}
+ -t 1.65 -s 1 -d 2 -p cbr -e 500 -c 0 -i 22 -a 0 -x {0.0 2.0 22 ------- null}
- -t 1.65 -s 1 -d 2 -p cbr -e 500 -c 0 -i 22 -a 0 -x {0.0 2.0 22 ------- null}
h -t 1.65 -s 1 -d 2 -p cbr -e 500 -c 0 -i 22 -a 0 -x {0.0 2.0 -1 ------- null}
+ -t 1.65 -s 0 -d 1 -p cbr -e 500 -c 0 -i 23 -a 0 -x {0.0 2.0 23 ------- null}
- -t 1.65 -s 0 -d 1 -p cbr -e 500 -c 0 -i 23 -a 0 -x {0.0 2.0 23 ------- null}
h -t 1.65 -s 0 -d 1 -p cbr -e 500 -c 0 -i 23 -a 0 -x {0.0 2.0 -1 ------- null}
r -t 1.7 -s 1 -d 2 -p cbr -e 500 -c 0 -i 22 -a 0 -x {0.0 2.0 22 ------- null}
r -t 1.7 -s 0 -d 1 -p cbr -e 500 -c 0 -i 23 -a 0 -x {0.0 2.0 23 ------- null}
+ -t 1.7 -s 1 -d 2 -p cbr -e 500 -c 0 -i 23 -a 0 -x {0.0 2.0 23 ------- null}
- -t 1.7 -s 1 -d 2 -p cbr -e 500 -c 0 -i 23 -a 0 -x {0.0 2.0 23 ------- null}
h -t 1.7 -s 1 -d 2 -p cbr -e 500 -c 0 -i 23 -a 0 -x {0.0 2.0 -1 ------- null}
+ -t 1.7 -s 0 -d 1 -p cbr -e 500 -c 0 -i 24 -a 0 -x {0.0 2.0 24 ------- null}
- -t 1.7 -s 0 -d 1 -p cbr -e 500 -c 0 -i 24 -a 0 -x {0.0 2.0 24 ------- null}
h -t 1.7 -s 0 -d 1 -p cbr -e 500 -c 0 -i 24 -a 0 -x {0.0 2.0 -1 ------- null}
r -t 1.75 -s 1 -d 2 -p cbr -e 500 -c 0 -i 23 -a 0 -x {0.0 2.0 23 ------- null}
r -t 1.75 -s 0 -d 1 -p cbr -e 500 -c 0 -i 24 -a 0 -x {0.0 2.0 24 ------- null}
+ -t 1.75 -s 1 -d 2 -p cbr -e 500 -c 0 -i 24 -a 0 -x {0.0 2.0 24 ------- null}
- -t 1.75 -s 1 -d 2 -p cbr -e 500 -c 0 -i 24 -a 0 -x {0.0 2.0 24 ------- null}
h -t 1.75 -s 1 -d 2 -p cbr -e 500 -c 0 -i 24 -a 0 -x {0.0 2.0 -1 ------- null}
+ -t 1.75 -s 0 -d 1 -p cbr -e 500 -c 0 -i 25 -a 0 -x {0.0 2.0 25 ------- null}
- -t 1.75 -s 0 -d 1 -p cbr -e 500 -c 0 -i 25 -a 0 -x {0.0 2.0 25 ------- null}
h -t 1.75 -s 0 -d 1 -p cbr -e 500 -c 0 -i 25 -a 0 -x {0.0 2.0 -1 ------- null}
r -t 1.8 -s 1 -d 2 -p cbr -e 500 -c 0 -i 24 -a 0 -x {0.0 2.0 24 ------- null}
r -t 1.8 -s 0 -d 1 -p cbr -e 500 -c 0 -i 25 -a 0 -x {0.0 2.0 25 ------- null}
+ -t 1.8 -s 1 -d 2 -p cbr -e 500 -c 0 -i 25 -a 0 -x {0.0 2.0 25 ------- null}
- -t 1.8 -s 1 -d 2 -p cbr -e 500 -c 0 -i 25 -a 0 -x {0.0 2.0 25 ------- null}
h -t 1.8 -s 1 -d 2 -p cbr -e 500 -c 0 -i 25 -a 0 -x {0.0 2.0 -1 ------- null}
+ -t 1.8 -s 0 -d 1 -p cbr -e 500 -c 0 -i 26 -a 0 -x {0.0 2.0 26 ------- null}
- -t 1.8 -s 0 -d 1 -p cbr -e 500 -c 0 -i 26 -a 0 -x {0.0 2.0 26 ------- null}
h -t 1.8 -s 0 -d 1 -p cbr -e 500 -c 0 -i 26 -a 0 -x {0.0 2.0 -1 ------- null}
r -t 1.85 -s 1 -d 2 -p cbr -e 500 -c 0 -i 25 -a 0 -x {0.0 2.0 25 ------- null}
r -t 1.85 -s 0 -d 1 -p cbr -e 500 -c 0 -i 26 -a 0 -x {0.0 2.0 26 ------- null}
+ -t 1.85 -s 1 -d 2 -p cbr -e 500 -c 0 -i 26 -a 0 -x {0.0 2.0 26 ------- null}
- -t 1.85 -s 1 -d 2 -p cbr -e 500 -c 0 -i 26 -a 0 -x {0.0 2.0 26 ------- null}
h -t 1.85 -s 1 -d 2 -p cbr -e 500 -c 0 -i 26 -a 0 -x {0.0 2.0 -1 ------- null}
+ -t 1.85 -s 0 -d 1 -p cbr -e 500 -c 0 -i 27 -a 0 -x {0.0 2.0 27 ------- null}
- -t 1.85 -s 0 -d 1 -p cbr -e 500 -c 0 -i 27 -a 0 -x {0.0 2.0 27 ------- null}
h -t 1.85 -s 0 -d 1 -p cbr -e 500 -c 0 -i 27 -a 0 -x {0.0 2.0 -1 ------- null}
r -t 1.9 -s 1 -d 2 -p cbr -e 500 -c 0 -i 26 -a 0 -x {0.0 2.0 26 ------- null}
r -t 1.9 -s 0 -d 1 -p cbr -e 500 -c 0 -i 27 -a 0 -x {0.0 2.0 27 ------- null}
+ -t 1.9 -s 1 -d 2 -p cbr -e 500 -c 0 -i 27 -a 0 -x {0.0 2.0 27 ------- null}
- -t 1.9 -s 1 -d 2 -p cbr -e 500 -c 0 -i 27 -a 0 -x {0.0 2.0 27 ------- null}
h -t 1.9 -s 1 -d 2 -p cbr -e 500 -c 0 -i 27 -a 0 -x {0.0 2.0 -1 ------- null}
+ -t 1.9 -s 0 -d 1 -p cbr -e 500 -c 0 -i 28 -a 0 -x {0.0 2.0 28 ------- null}
- -t 1.9 -s 0 -d 1 -p cbr -e 500 -c 0 -i 28 -a 0 -x {0.0 2.0 28 ------- null}
h -t 1.9 -s 0 -d 1 -p cbr -e 500 -c 0 -i 28 -a 0 -x {0.0 2.0 -1 ------- null}
r -t 1.95 -s 1 -d 2 -p cbr -e 500 -c 0 -i 27 -a 0 -x {0.0 2.0 27 ------- null}
r -t 1.95 -s 0 -d 1 -p cbr -e 500 -c 0 -i 28 -a 0 -x {0.0 2.0 28 ------- null}
+ -t 1.95 -s 1 -d 2 -p cbr -e 500 -c 0 -i 28 -a 0 -x {0.0 2.0 28 ------- null}
- -t 1.95 -s 1 -d 2 -p cbr -e 500 -c 0 -i 28 -a 0 -x {0.0 2.0 28 ------- null}
h -t 1.95 -s 1 -d 2 -p cbr -e 500 -c 0 -i 28 -a 0 -x {0.0 2.0 -1 ------- null}
+ -t 1.95 -s 0 -d 1 -p cbr -e 500 -c 0 -i 29 -a 0 -x {0.0 2.0 29 ------- null}
- -t 1.95 -s 0 -d 1 -p cbr -e 500 -c 0 -i 29 -a 0 -x {0.0 2.0 29 ------- null}
h -t 1.95 -s 0 -d 1 -p cbr -e 500 -c 0 -i 29 -a 0 -x {0.0 2.0 -1 ------- null}
r -t 2 -s 1 -d 2 -p cbr -e 500 -c 0 -i 28 -a 0 -x {0.0 2.0 28 ------- null}
r -t 2 -s 0 -d 1 -p cbr -e 500 -c 0 -i 29 -a 0 -x {0.0 2.0 29 ------- null}
+ -t 2 -s 1 -d 2 -p cbr -e 500 -c 0 -i 29 -a 0 -x {0.0 2.0 29 ------- null}
- -t 2 -s 1 -d 2 -p cbr -e 500 -c 0 -i 29 -a 0 -x {0.0 2.0 29 ------- null}
h -t 2 -s 1 -d 2 -p cbr -e 500 -c 0 -i 29 -a 0 -x {0.0 2.0 -1 ------- null}
+ -t 2 -s 0 -d 1 -p cbr -e 500 -c 0 -i 30 -a 0 -x {0.0 2.0 30 ------- null}
- -t 2 -s 0 -d 1 -p cbr -e 500 -c 0 -i 30 -a 0 -x {0.0 2.0 30 ------- null}
h -t 2 -s 0 -d 1 -p cbr -e 500 -c 0 -i 30 -a 0 -x {0.0 2.0 -1 ------- null}
r -t 2.05 -s 1 -d 2 -p cbr -e 500 -c 0 -i 29 -a 0 -x {0.0 2.0 29 ------- null}
r -t 2.05 -s 0 -d 1 -p cbr -e 500 -c 0 -i 30 -a 0 -x {0.0 2.0 30 ------- null}
+ -t 2.05 -s 1 -d 2 -p cbr -e 500 -c 0 -i 30 -a 0 -x {0.0 2.0 30 ------- null}
- -t 2.05 -s 1 -d 2 -p cbr -e 500 -c 0 -i 30 -a 0 -x {0.0 2.0 30 ------- null}
h -t 2.05 -s 1 -d 2 -p cbr -e 500 -c 0 -i 30 -a 0 -x {0.0 2.0 -1 ------- null}
+ -t 2.05 -s 0 -d 1 -p cbr -e 500 -c 0 -i 31 -a 0 -x {0.0 2.0 31 ------- null}
- -t 2.05 -s 0 -d 1 -p cbr -e 500 -c 0 -i 31 -a 0 -x {0.0 2.0 31 ------- null}
h -t 2.05 -s 0 -d 1 -p cbr -e 500 -c 0 -i 31 -a 0 -x {0.0 2.0 -1 ------- null}
r -t 2.1 -s 1 -d 2 -p cbr -e 500 -c 0 -i 30 -a 0 -x {0.0 2.0 30 ------- null}
r -t 2.1 -s 0 -d 1 -p cbr -e 500 -c 0 -i 31 -a 0 -x {0.0 2.0 31 ------- null}
+ -t 2.1 -s 1 -d 2 -p cbr -e 500 -c 0 -i 31 -a 0 -x {0.0 2.0 31 ------- null}
- -t 2.1 -s 1 -d 2 -p cbr -e 500 -c 0 -i 31 -a 0 -x {0.0 2.0 31 ------- null}
h -t 2.1 -s 1 -d 2 -p cbr -e 500 -c 0 -i 31 -a 0 -x {0.0 2.0 -1 ------- null}
+ -t 2.1 -s 0 -d 1 -p cbr -e 500 -c 0 -i 32 -a 0 -x {0.0 2.0 32 ------- null}
- -t 2.1 -s 0 -d 1 -p cbr -e 500 -c 0 -i 32 -a 0 -x {0.0 2.0 32 ------- null}
h -t 2.1 -s 0 -d 1 -p cbr -e 500 -c 0 -i 32 -a 0 -x {0.0 2.0 -1 ------- null}
r -t 2.15 -s 1 -d 2 -p cbr -e 500 -c 0 -i 31 -a 0 -x {0.0 2.0 31 ------- null}
r -t 2.15 -s 0 -d 1 -p cbr -e 500 -c 0 -i 32 -a 0 -x {0.0 2.0 32 ------- null}
+ -t 2.15 -s 1 -d 2 -p cbr -e 500 -c 0 -i 32 -a 0 -x {0.0 2.0 32 ------- null}
- -t 2.15 -s 1 -d 2 -p cbr -e 500 -c 0 -i 32 -a 0 -x {0.0 2.0 32 ------- null}
h -t 2.15 -s 1 -d 2 -p cbr -e 500 -c 0 -i 32 -a 0 -x {0.0 2.0 -1 ------- null}
+ -t 2.15 -s 0 -d 1 -p cbr -e 500 -c 0 -i 33 -a 0 -x {0.0 2.0 33 ------- null}
- -t 2.15 -s 0 -d 1 -p cbr -e 500 -c 0 -i 33 -a 0 -x {0.0 2.0 33 ------- null}
h -t 2.15 -s 0 -d 1 -p cbr -e 500 -c 0 -i 33 -a 0 -x {0.0 2.0 -1 ------- null}
r -t 2.2 -s 1 -d 2 -p cbr -e 500 -c 0 -i 32 -a 0 -x {0.0 2.0 32 ------- null}
r -t 2.2 -s 0 -d 1 -p cbr -e 500 -c 0 -i 33 -a 0 -x {0.0 2.0 33 ------- null}
+ -t 2.2 -s 1 -d 2 -p cbr -e 500 -c 0 -i 33 -a 0 -x {0.0 2.0 33 ------- null}
- -t 2.2 -s 1 -d 2 -p cbr -e 500 -c 0 -i 33 -a 0 -x {0.0 2.0 33 ------- null}
h -t 2.2 -s 1 -d 2 -p cbr -e 500 -c 0 -i 33 -a 0 -x {0.0 2.0 -1 ------- null}
+ -t 2.2 -s 0 -d 1 -p cbr -e 500 -c 0 -i 34 -a 0 -x {0.0 2.0 34 ------- null}
- -t 2.2 -s 0 -d 1 -p cbr -e 500 -c 0 -i 34 -a 0 -x {0.0 2.0 34 ------- null}
h -t 2.2 -s 0 -d 1 -p cbr -e 500 -c 0 -i 34 -a 0 -x {0.0 2.0 -1 ------- null}
r -t 2.25 -s 1 -d 2 -p cbr -e 500 -c 0 -i 33 -a 0 -x {0.0 2.0 33 ------- null}
r -t 2.25 -s 0 -d 1 -p cbr -e 500 -c 0 -i 34 -a 0 -x {0.0 2.0 34 ------- null}
+ -t 2.25 -s 1 -d 2 -p cbr -e 500 -c 0 -i 34 -a 0 -x {0.0 2.0 34 ------- null}
- -t 2.25 -s 1 -d 2 -p cbr -e 500 -c 0 -i 34 -a 0 -x {0.0 2.0 34 ------- null}
h -t 2.25 -s 1 -d 2 -p cbr -e 500 -c 0 -i 34 -a 0 -x {0.0 2.0 -1 ------- null}
+ -t 2.25 -s 0 -d 1 -p cbr -e 500 -c 0 -i 35 -a 0 -x {0.0 2.0 35 ------- null}
- -t 2.25 -s 0 -d 1 -p cbr -e 500 -c 0 -i 35 -a 0 -x {0.0 2.0 35 ------- null}
h -t 2.25 -s 0 -d 1 -p cbr -e 500 -c 0 -i 35 -a 0 -x {0.0 2.0 -1 ------- null}
r -t 2.3 -s 1 -d 2 -p cbr -e 500 -c 0 -i 34 -a 0 -x {0.0 2.0 34 ------- null}
r -t 2.3 -s 0 -d 1 -p cbr -e 500 -c 0 -i 35 -a 0 -x {0.0 2.0 35 ------- null}
+ -t 2.3 -s 1 -d 2 -p cbr -e 500 -c 0 -i 35 -a 0 -x {0.0 2.0 35 ------- null}
- -t 2.3 -s 1 -d 2 -p cbr -e 500 -c 0 -i 35 -a 0 -x {0.0 2.0 35 ------- null}
h -t 2.3 -s 1 -d 2 -p cbr -e 500 -c 0 -i 35 -a 0 -x {0.0 2.0 -1 ------- null}
+ -t 2.3 -s 0 -d 1 -p cbr -e 500 -c 0 -i 36 -a 0 -x {0.0 2.0 36 ------- null}
- -t 2.3 -s 0 -d 1 -p cbr -e 500 -c 0 -i 36 -a 0 -x {0.0 2.0 36 ------- null}
h -t 2.3 -s 0 -d 1 -p cbr -e 500 -c 0 -i 36 -a 0 -x {0.0 2.0 -1 ------- null}
r -t 2.35 -s 1 -d 2 -p cbr -e 500 -c 0 -i 35 -a 0 -x {0.0 2.0 35 ------- null}
r -t 2.35 -s 0 -d 1 -p cbr -e 500 -c 0 -i 36 -a 0 -x {0.0 2.0 36 ------- null}
+ -t 2.35 -s 1 -d 2 -p cbr -e 500 -c 0 -i 36 -a 0 -x {0.0 2.0 36 ------- null}
- -t 2.35 -s 1 -d 2 -p cbr -e 500 -c 0 -i 36 -a 0 -x {0.0 2.0 36 ------- null}
h -t 2.35 -s 1 -d 2 -p cbr -e 500 -c 0 -i 36 -a 0 -x {0.0 2.0 -1 ------- null}
+ -t 2.35 -s 0 -d 1 -p cbr -e 500 -c 0 -i 37 -a 0 -x {0.0 2.0 37 ------- null}
- -t 2.35 -s 0 -d 1 -p cbr -e 500 -c 0 -i 37 -a 0 -x {0.0 2.0 37 ------- null}
h -t 2.35 -s 0 -d 1 -p cbr -e 500 -c 0 -i 37 -a 0 -x {0.0 2.0 -1 ------- null}
r -t 2.4 -s 1 -d 2 -p cbr -e 500 -c 0 -i 36 -a 0 -x {0.0 2.0 36 ------- null}
r -t 2.4 -s 0 -d 1 -p cbr -e 500 -c 0 -i 37 -a 0 -x {0.0 2.0 37 ------- null}
+ -t 2.4 -s 1 -d 2 -p cbr -e 500 -c 0 -i 37 -a 0 -x {0.0 2.0 37 ------- null}
- -t 2.4 -s 1 -d 2 -p cbr -e 500 -c 0 -i 37 -a 0 -x {0.0 2.0 37 ------- null}
h -t 2.4 -s 1 -d 2 -p cbr -e 500 -c 0 -i 37 -a 0 -x {0.0 2.0 -1 ------- null}
+ -t 2.4 -s 0 -d 1 -p cbr -e 500 -c 0 -i 38 -a 0 -x {0.0 2.0 38 ------- null}
- -t 2.4 -s 0 -d 1 -p cbr -e 500 -c 0 -i 38 -a 0 -x {0.0 2.0 38 ------- null}
h -t 2.4 -s 0 -d 1 -p cbr -e 500 -c 0 -i 38 -a 0 -x {0.0 2.0 -1 ------- null}
r -t 2.45 -s 1 -d 2 -p cbr -e 500 -c 0 -i 37 -a 0 -x {0.0 2.0 37 ------- null}
r -t 2.45 -s 0 -d 1 -p cbr -e 500 -c 0 -i 38 -a 0 -x {0.0 2.0 38 ------- null}
+ -t 2.45 -s 1 -d 2 -p cbr -e 500 -c 0 -i 38 -a 0 -x {0.0 2.0 38 ------- null}
- -t 2.45 -s 1 -d 2 -p cbr -e 500 -c 0 -i 38 -a 0 -x {0.0 2.0 38 ------- null}
h -t 2.45 -s 1 -d 2 -p cbr -e 500 -c 0 -i 38 -a 0 -x {0.0 2.0 -1 ------- null}
+ -t 2.45 -s 0 -d 1 -p cbr -e 500 -c 0 -i 39 -a 0 -x {0.0 2.0 39 ------- null}
- -t 2.45 -s 0 -d 1 -p cbr -e 500 -c 0 -i 39 -a 0 -x {0.0 2.0 39 ------- null}
h -t 2.45 -s 0 -d 1 -p cbr -e 500 -c 0 -i 39 -a 0 -x {0.0 2.0 -1 ------- null}
r -t 2.5 -s 1 -d 2 -p cbr -e 500 -c 0 -i 38 -a 0 -x {0.0 2.0 38 ------- null}
r -t 2.5 -s 0 -d 1 -p cbr -e 500 -c 0 -i 39 -a 0 -x {0.0 2.0 39 ------- null}
+ -t 2.5 -s 1 -d 2 -p cbr -e 500 -c 0 -i 39 -a 0 -x {0.0 2.0 39 ------- null}
- -t 2.5 -s 1 -d 2 -p cbr -e 500 -c 0 -i 39 -a 0 -x {0.0 2.0 39 ------- null}
h -t 2.5 -s 1 -d 2 -p cbr -e 500 -c 0 -i 39 -a 0 -x {0.0 2.0 -1 ------- null}
+ -t 2.5 -s 0 -d 1 -p cbr -e 500 -c 0 -i 40 -a 0 -x {0.0 2.0 40 ------- null}
- -t 2.5 -s 0 -d 1 -p cbr -e 500 -c 0 -i 40 -a 0 -x {0.0 2.0 40 ------- null}
h -t 2.5 -s 0 -d 1 -p cbr -e 500 -c 0 -i 40 -a 0 -x {0.0 2.0 -1 ------- null}
r -t 2.55 -s 1 -d 2 -p cbr -e 500 -c 0 -i 39 -a 0 -x {0.0 2.0 39 ------- null}
r -t 2.55 -s 0 -d 1 -p cbr -e 500 -c 0 -i 40 -a 0 -x {0.0 2.0 40 ------- null}
+ -t 2.55 -s 1 -d 2 -p cbr -e 500 -c 0 -i 40 -a 0 -x {0.0 2.0 40 ------- null}
- -t 2.55 -s 1 -d 2 -p cbr -e 500 -c 0 -i 40 -a 0 -x {0.0 2.0 40 ------- null}
h -t 2.55 -s 1 -d 2 -p cbr -e 500 -c 0 -i 40 -a 0 -x {0.0 2.0 -1 ------- null}
+ -t 2.55 -s 0 -d 1 -p cbr -e 500 -c 0 -i 41 -a 0 -x {0.0 2.0 41 ------- null}
- -t 2.55 -s 0 -d 1 -p cbr -e 500 -c 0 -i 41 -a 0 -x {0.0 2.0 41 ------- null}
h -t 2.55 -s 0 -d 1 -p cbr -e 500 -c 0 -i 41 -a 0 -x {0.0 2.0 -1 ------- null}
r -t 2.6 -s 1 -d 2 -p cbr -e 500 -c 0 -i 40 -a 0 -x {0.0 2.0 40 ------- null}
r -t 2.6 -s 0 -d 1 -p cbr -e 500 -c 0 -i 41 -a 0 -x {0.0 2.0 41 ------- null}
+ -t 2.6 -s 1 -d 2 -p cbr -e 500 -c 0 -i 41 -a 0 -x {0.0 2.0 41 ------- null}
- -t 2.6 -s 1 -d 2 -p cbr -e 500 -c 0 -i 41 -a 0 -x {0.0 2.0 41 ------- null}
h -t 2.6 -s 1 -d 2 -p cbr -e 500 -c 0 -i 41 -a 0 -x {0.0 2.0 -1 ------- null}
+ -t 2.6 -s 0 -d 1 -p cbr -e 500 -c 0 -i 42 -a 0 -x {0.0 2.0 42 ------- null}
- -t 2.6 -s 0 -d 1 -p cbr -e 500 -c 0 -i 42 -a 0 -x {0.0 2.0 42 ------- null}
h -t 2.6 -s 0 -d 1 -p cbr -e 500 -c 0 -i 42 -a 0 -x {0.0 2.0 -1 ------- null}
r -t 2.65 -s 1 -d 2 -p cbr -e 500 -c 0 -i 41 -a 0 -x {0.0 2.0 41 ------- null}
r -t 2.65 -s 0 -d 1 -p cbr -e 500 -c 0 -i 42 -a 0 -x {0.0 2.0 42 ------- null}
+ -t 2.65 -s 1 -d 2 -p cbr -e 500 -c 0 -i 42 -a 0 -x {0.0 2.0 42 ------- null}
- -t 2.65 -s 1 -d 2 -p cbr -e 500 -c 0 -i 42 -a 0 -x {0.0 2.0 42 ------- null}
h -t 2.65 -s 1 -d 2 -p cbr -e 500 -c 0 -i 42 -a 0 -x {0.0 2.0 -1 ------- null}
+ -t 2.65 -s 0 -d 1 -p cbr -e 500 -c 0 -i 43 -a 0 -x {0.0 2.0 43 ------- null}
- -t 2.65 -s 0 -d 1 -p cbr -e 500 -c 0 -i 43 -a 0 -x {0.0 2.0 43 ------- null}
h -t 2.65 -s 0 -d 1 -p cbr -e 500 -c 0 -i 43 -a 0 -x {0.0 2.0 -1 ------- null}
r -t 2.7 -s 1 -d 2 -p cbr -e 500 -c 0 -i 42 -a 0 -x {0.0 2.0 42 ------- null}
r -t 2.7 -s 0 -d 1 -p cbr -e 500 -c 0 -i 43 -a 0 -x {0.0 2.0 43 ------- null}
+ -t 2.7 -s 1 -d 2 -p cbr -e 500 -c 0 -i 43 -a 0 -x {0.0 2.0 43 ------- null}
- -t 2.7 -s 1 -d 2 -p cbr -e 500 -c 0 -i 43 -a 0 -x {0.0 2.0 43 ------- null}
h -t 2.7 -s 1 -d 2 -p cbr -e 500 -c 0 -i 43 -a 0 -x {0.0 2.0 -1 ------- null}
+ -t 2.7 -s 0 -d 1 -p cbr -e 500 -c 0 -i 44 -a 0 -x {0.0 2.0 44 ------- null}
- -t 2.7 -s 0 -d 1 -p cbr -e 500 -c 0 -i 44 -a 0 -x {0.0 2.0 44 ------- null}
h -t 2.7 -s 0 -d 1 -p cbr -e 500 -c 0 -i 44 -a 0 -x {0.0 2.0 -1 ------- null}
r -t 2.75 -s 1 -d 2 -p cbr -e 500 -c 0 -i 43 -a 0 -x {0.0 2.0 43 ------- null}
r -t 2.75 -s 0 -d 1 -p cbr -e 500 -c 0 -i 44 -a 0 -x {0.0 2.0 44 ------- null}
+ -t 2.75 -s 1 -d 2 -p cbr -e 500 -c 0 -i 44 -a 0 -x {0.0 2.0 44 ------- null}
- -t 2.75 -s 1 -d 2 -p cbr -e 500 -c 0 -i 44 -a 0 -x {0.0 2.0 44 ------- null}
h -t 2.75 -s 1 -d 2 -p cbr -e 500 -c 0 -i 44 -a 0 -x {0.0 2.0 -1 ------- null}
+ -t 2.75 -s 0 -d 1 -p cbr -e 500 -c 0 -i 45 -a 0 -x {0.0 2.0 45 ------- null}
- -t 2.75 -s 0 -d 1 -p cbr -e 500 -c 0 -i 45 -a 0 -x {0.0 2.0 45 ------- null}
h -t 2.75 -s 0 -d 1 -p cbr -e 500 -c 0 -i 45 -a 0 -x {0.0 2.0 -1 ------- null}
r -t 2.8 -s 1 -d 2 -p cbr -e 500 -c 0 -i 44 -a 0 -x {0.0 2.0 44 ------- null}
r -t 2.8 -s 0 -d 1 -p cbr -e 500 -c 0 -i 45 -a 0 -x {0.0 2.0 45 ------- null}
+ -t 2.8 -s 1 -d 2 -p cbr -e 500 -c 0 -i 45 -a 0 -x {0.0 2.0 45 ------- null}
- -t 2.8 -s 1 -d 2 -p cbr -e 500 -c 0 -i 45 -a 0 -x {0.0 2.0 45 ------- null}
h -t 2.8 -s 1 -d 2 -p cbr -e 500 -c 0 -i 45 -a 0 -x {0.0 2.0 -1 ------- null}
+ -t 2.8 -s 0 -d 1 -p cbr -e 500 -c 0 -i 46 -a 0 -x {0.0 2.0 46 ------- null}
- -t 2.8 -s 0 -d 1 -p cbr -e 500 -c 0 -i 46 -a 0 -x {0.0 2.0 46 ------- null}
h -t 2.8 -s 0 -d 1 -p cbr -e 500 -c 0 -i 46 -a 0 -x {0.0 2.0 -1 ------- null}
r -t 2.85 -s 1 -d 2 -p cbr -e 500 -c 0 -i 45 -a 0 -x {0.0 2.0 45 ------- null}
r -t 2.85 -s 0 -d 1 -p cbr -e 500 -c 0 -i 46 -a 0 -x {0.0 2.0 46 ------- null}
+ -t 2.85 -s 1 -d 2 -p cbr -e 500 -c 0 -i 46 -a 0 -x {0.0 2.0 46 ------- null}
- -t 2.85 -s 1 -d 2 -p cbr -e 500 -c 0 -i 46 -a 0 -x {0.0 2.0 46 ------- null}
h -t 2.85 -s 1 -d 2 -p cbr -e 500 -c 0 -i 46 -a 0 -x {0.0 2.0 -1 ------- null}
+ -t 2.85 -s 0 -d 1 -p cbr -e 500 -c 0 -i 47 -a 0 -x {0.0 2.0 47 ------- null}
- -t 2.85 -s 0 -d 1 -p cbr -e 500 -c 0 -i 47 -a 0 -x {0.0 2.0 47 ------- null}
h -t 2.85 -s 0 -d 1 -p cbr -e 500 -c 0 -i 47 -a 0 -x {0.0 2.0 -1 ------- null}
r -t 2.9 -s 1 -d 2 -p cbr -e 500 -c 0 -i 46 -a 0 -x {0.0 2.0 46 ------- null}