+ 0.5 0 1 cbr 500 ------- 0 0.0 2.0 0 0
- 0.5 0 1 cbr 500 ------- 0 0.0 2.0 0 0
+ 0.505 0 1 cbr 500 ------- 0 0.0 2.0 1 1
- 0.505 0 1 cbr 500 ------- 0 0.0 2.0 1 1
+ 0.51 0 1 cbr 500 ------- 0 0.0 2.0 2 2
- 0.51 0 1 cbr 500 ------- 0 0.0 2.0 2 2
r 0.514 0 1 cbr 500 ------- 0 0.0 2.0 0 0
+ 0.514 1 2 cbr 500 ------- 0 0.0 2.0 0 0
- 0.514 1 2 cbr 500 ------- 0 0.0 2.0 0 0
+ 0.515 0 1 cbr 500 ------- 0 0.0 2.0 3 3
- 0.515 0 1 cbr 500 ------- 0 0.0 2.0 3 3
r 0.519 0 1 cbr 500 ------- 0 0.0 2.0 1 1
+ 0.519 1 2 cbr 500 ------- 0 0.0 2.0 1 1
- 0.519 1 2 cbr 500 ------- 0 0.0 2.0 1 1
+ 0.52 0 1 cbr 500 ------- 0 0.0 2.0 4 4
- 0.52 0 1 cbr 500 ------- 0 0.0 2.0 4 4
r 0.524 0 1 cbr 500 ------- 0 0.0 2.0 2 2
+ 0.524 1 2 cbr 500 ------- 0 0.0 2.0 2 2
- 0.524 1 2 cbr 500 ------- 0 0.0 2.0 2 2
+ 0.525 0 1 cbr 500 ------- 0 0.0 2.0 5 5
- 0.525 0 1 cbr 500 ------- 0 0.0 2.0 5 5
r 0.528444 1 2 cbr 500 ------- 0 0.0 2.0 0 0
r 0.529 0 1 cbr 500 ------- 0 0.0 2.0 3 3
+ 0.529 1 2 cbr 500 ------- 0 0.0 2.0 3 3
- 0.529 1 2 cbr 500 ------- 0 0.0 2.0 3 3
+ 0.53 0 1 cbr 500 ------- 0 0.0 2.0 6 6
- 0.53 0 1 cbr 500 ------- 0 0.0 2.0 6 6
r 0.533444 1 2 cbr 500 ------- 0 0.0 2.0 1 1
r 0.534 0 1 cbr 500 ------- 0 0.0 2.0 4 4
+ 0.534 1 2 cbr 500 ------- 0 0.0 2.0 4 4
- 0.534 1 2 cbr 500 ------- 0 0.0 2.0 4 4
+ 0.535 0 1 cbr 500 ------- 0 0.0 2.0 7 7
- 0.535 0 1 cbr 500 ------- 0 0.0 2.0 7 7
r 0.538444 1 2 cbr 500 ------- 0 0.0 2.0 2 2
r 0.539 0 1 cbr 500 ------- 0 0.0 2.0 5 5
+ 0.539 1 2 cbr 500 ------- 0 0.0 2.0 5 5
- 0.539 1 2 cbr 500 ------- 0 0.0 2.0 5 5
+ 0.54 0 1 cbr 500 ------- 0 0.0 2.0 8 8
- 0.54 0 1 cbr 500 ------- 0 0.0 2.0 8 8
r 0.543444 1 2 cbr 500 ------- 0 0.0 2.0 3 3
r 0.544 0 1 cbr 500 ------- 0 0.0 2.0 6 6
+ 0.544 1 2 cbr 500 ------- 0 0.0 2.0 6 6
- 0.544 1 2 cbr 500 ------- 0 0.0 2.0 6 6
+ 0.545 0 1 cbr 500 ------- 0 0.0 2.0 9 9
- 0.545 0 1 cbr 500 ------- 0 0.0 2.0 9 9
r 0.548444 1 2 cbr 500 ------- 0 0.0 2.0 4 4
r 0.549 0 1 cbr 500 ------- 0 0.0 2.0 7 7
+ 0.549 1 2 cbr 500 ------- 0 0.0 2.0 7 7
- 0.549 1 2 cbr 500 ------- 0 0.0 2.0 7 7
+ 0.55 0 1 cbr 500 ------- 0 0.0 2.0 10 10
- 0.55 0 1 cbr 500 ------- 0 0.0 2.0 10 10
r 0.553444 1 2 cbr 500 ------- 0 0.0 2.0 5 5
r 0.554 0 1 cbr 500 ------- 0 0.0 2.0 8 8
+ 0.554 1 2 cbr 500 ------- 0 0.0 2.0 8 8
- 0.554 1 2 cbr 500 ------- 0 0.0 2.0 8 8
+ 0.555 0 1 cbr 500 ------- 0 0.0 2.0 11 11
- 0.555 0 1 cbr 500 ------- 0 0.0 2.0 11 11
r 0.558444 1 2 cbr 500 ------- 0 0.0 2.0 6 6
r 0.559 0 1 cbr 500 ------- 0 0.0 2.0 9 9
+ 0.559 1 2 cbr 500 ------- 0 0.0 2.0 9 9
- 0.559 1 2 cbr 500 ------- 0 0.0 2.0 9 9
+ 0.56 0 1 cbr 500 ------- 0 0.0 2.0 12 12
- 0.56 0 1 cbr 500 ------- 0 0.0 2.0 12 12
r 0.563444 1 2 cbr 500 ------- 0 0.0 2.0 7 7
r 0.564 0 1 cbr 500 ------- 0 0.0 2.0 10 10
+ 0.564 1 2 cbr 500 ------- 0 0.0 2.0 10 10
- 0.564 1 2 cbr 500 ------- 0 0.0 2.0 10 10
+ 0.565 0 1 cbr 500 ------- 0 0.0 2.0 13 13
- 0.565 0 1 cbr 500 ------- 0 0.0 2.0 13 13
r 0.568444 1 2 cbr 500 ------- 0 0.0 2.0 8 8
r 0.569 0 1 cbr 500 ------- 0 0.0 2.0 11 11
+ 0.569 1 2 cbr 500 ------- 0 0.0 2.0 11 11
- 0.569 1 2 cbr 500 ------- 0 0.0 2.0 11 11
+ 0.57 0 1 cbr 500 ------- 0 0.0 2.0 14 14
- 0.57 0 1 cbr 500 ------- 0 0.0 2.0 14 14
r 0.573444 1 2 cbr 500 ------- 0 0.0 2.0 9 9
r 0.574 0 1 cbr 500 ------- 0 0.0 2.0 12 12
+ 0.574 1 2 cbr 500 ------- 0 0.0 2.0 12 12
- 0.574 1 2 cbr 500 ------- 0 0.0 2.0 12 12
+ 0.575 0 1 cbr 500 ------- 0 0.0 2.0 15 15
- 0.575 0 1 cbr 500 ------- 0 0.0 2.0 15 15
r 0.578444 1 2 cbr 500 ------- 0 0.0 2.0 10 10
r 0.579 0 1 cbr 500 ------- 0 0.0 2.0 13 13
+ 0.579 1 2 cbr 500 ------- 0 0.0 2.0 13 13
- 0.579 1 2 cbr 500 ------- 0 0.0 2.0 13 13
+ 0.58 0 1 cbr 500 ------- 0 0.0 2.0 16 16
- 0.58 0 1 cbr 500 ------- 0 0.0 2.0 16 16
r 0.583444 1 2 cbr 500 ------- 0 0.0 2.0 11 11
r 0.584 0 1 cbr 500 ------- 0 0.0 2.0 14 14
+ 0.584 1 2 cbr 500 ------- 0 0.0 2.0 14 14
- 0.584 1 2 cbr 500 ------- 0 0.0 2.0 14 14
+ 0.585 0 1 cbr 500 ------- 0 0.0 2.0 17 17
- 0.585 0 1 cbr 500 ------- 0 0.0 2.0 17 17
r 0.588444 1 2 cbr 500 ------- 0 0.0 2.0 12 12
r 0.589 0 1 cbr 500 ------- 0 0.0 2.0 15 15
+ 0.589 1 2 cbr 500 ------- 0 0.0 2.0 15 15
- 0.589 1 2 cbr 500 ------- 0 0.0 2.0 15 15
+ 0.59 0 1 cbr 500 ------- 0 0.0 2.0 18 18
- 0.59 0 1 cbr 500 ------- 0 0.0 2.0 18 18
r 0.593444 1 2 cbr 500 ------- 0 0.0 2.0 13 13
r 0.594 0 1 cbr 500 ------- 0 0.0 2.0 16 16
+ 0.594 1 2 cbr 500 ------- 0 0.0 2.0 16 16
- 0.594 1 2 cbr 500 ------- 0 0.0 2.0 16 16
+ 0.595 0 1 cbr 500 ------- 0 0.0 2.0 19 19
- 0.595 0 1 cbr 500 ------- 0 0.0 2.0 19 19
r 0.598444 1 2 cbr 500 ------- 0 0.0 2.0 14 14
r 0.599 0 1 cbr 500 ------- 0 0.0 2.0 17 17
+ 0.599 1 2 cbr 500 ------- 0 0.0 2.0 17 17
- 0.599 1 2 cbr 500 ------- 0 0.0 2.0 17 17
+ 0.6 0 1 cbr 500 ------- 0 0.0 2.0 20 20
- 0.6 0 1 cbr 500 ------- 0 0.0 2.0 20 20
r 0.603444 1 2 cbr 500 ------- 0 0.0 2.0 15 15
r 0.604 0 1 cbr 500 ------- 0 0.0 2.0 18 18
+ 0.604 1 2 cbr 500 ------- 0 0.0 2.0 18 18
- 0.604 1 2 cbr 500 ------- 0 0.0 2.0 18 18
+ 0.605 0 1 cbr 500 ------- 0 0.0 2.0 21 21
- 0.605 0 1 cbr 500 ------- 0 0.0 2.0 21 21
r 0.608444 1 2 cbr 500 ------- 0 0.0 2.0 16 16
r 0.609 0 1 cbr 500 ------- 0 0.0 2.0 19 19
+ 0.609 1 2 cbr 500 ------- 0 0.0 2.0 19 19
- 0.609 1 2 cbr 500 ------- 0 0.0 2.0 19 19
+ 0.61 0 1 cbr 500 ------- 0 0.0 2.0 22 22
- 0.61 0 1 cbr 500 ------- 0 0.0 2.0 22 22
r 0.613444 1 2 cbr 500 ------- 0 0.0 2.0 17 17
r 0.614 0 1 cbr 500 ------- 0 0.0 2.0 20 20
+ 0.614 1 2 cbr 500 ------- 0 0.0 2.0 20 20
- 0.614 1 2 cbr 500 ------- 0 0.0 2.0 20 20
+ 0.615 0 1 cbr 500 ------- 0 0.0 2.0 23 23
- 0.615 0 1 cbr 500 ------- 0 0.0 2.0 23 23
r 0.618444 1 2 cbr 500 ------- 0 0.0 2.0 18 18
r 0.619 0 1 cbr 500 ------- 0 0.0 2.0 21 21
+ 0.619 1 2 cbr 500 ------- 0 0.0 2.0 21 21
- 0.619 1 2 cbr 500 ------- 0 0.0 2.0 21 21
+ 0.62 0 1 cbr 500 ------- 0 0.0 2.0 24 24
- 0.62 0 1 cbr 500 ------- 0 0.0 2.0 24 24
r 0.623444 1 2 cbr 500 ------- 0 0.0 2.0 19 19
r 0.624 0 1 cbr 500 ------- 0 0.0 2.0 22 22
+ 0.624 1 2 cbr 500 ------- 0 0.0 2.0 22 22
- 0.624 1 2 cbr 500 ------- 0 0.0 2.0 22 22
+ 0.625 0 1 cbr 500 ------- 0 0.0 2.0 25 25
- 0.625 0 1 cbr 500 ------- 0 0.0 2.0 25 25
r 0.628444 1 2 cbr 500 ------- 0 0.0 2.0 20 20
r 0.629 0 1 cbr 500 ------- 0 0.0 2.0 23 23
+ 0.629 1 2 cbr 500 ------- 0 0.0 2.0 23 23
- 0.629 1 2 cbr 500 ------- 0 0.0 2.0 23 23
+ 0.63 0 1 cbr 500 ------- 0 0.0 2.0 26 26
- 0.63 0 1 cbr 500 ------- 0 0.0 2.0 26 26
r 0.633444 1 2 cbr 500 ------- 0 0.0 2.0 21 21
r 0.634 0 1 cbr 500 ------- 0 0.0 2.0 24 24
+ 0.634 1 2 cbr 500 ------- 0 0.0 2.0 24 24
- 0.634 1 2 cbr 500 ------- 0 0.0 2.0 24 24
+ 0.635 0 1 cbr 500 ------- 0 0.0 2.0 27 27
- 0.635 0 1 cbr 500 ------- 0 0.0 2.0 27 27
r 0.638444 1 2 cbr 500 ------- 0 0.0 2.0 22 22
r 0.639 0 1 cbr 500 ------- 0 0.0 2.0 25 25
+ 0.639 1 2 cbr 500 ------- 0 0.0 2.0 25 25
- 0.639 1 2 cbr 500 ------- 0 0.0 2.0 25 25
+ 0.64 0 1 cbr 500 ------- 0 0.0 2.0 28 28
- 0.64 0 1 cbr 500 ------- 0 0.0 2.0 28 28
r 0.643444 1 2 cbr 500 ------- 0 0.0 2.0 23 23
r 0.644 0 1 cbr 500 ------- 0 0.0 2.0 26 26
+ 0.644 1 2 cbr 500 ------- 0 0.0 2.0 26 26
- 0.644 1 2 cbr 500 ------- 0 0.0 2.0 26 26
+ 0.645 0 1 cbr 500 ------- 0 0.0 2.0 29 29
- 0.645 0 1 cbr 500 ------- 0 0.0 2.0 29 29
r 0.648444 1 2 cbr 500 ------- 0 0.0 2.0 24 24
r 0.649 0 1 cbr 500 ------- 0 0.0 2.0 27 27
+ 0.649 1 2 cbr 500 ------- 0 0.0 2.0 27 27
- 0.649 1 2 cbr 500 ------- 0 0.0 2.0 27 27
+ 0.65 0 1 cbr 500 ------- 0 0.0 2.0 30 30
- 0.65 0 1 cbr 500 ------- 0 0.0 2.0 30 30
r 0.653444 1 2 cbr 500 ------- 0 0.0 2.0 25 25
r 0.654 0 1 cbr 500 ------- 0 0.0 2.0 28 28
+ 0.654 1 2 cbr 500 ------- 0 0.0 2.0 28 28
- 0.654 1 2 cbr 500 ------- 0 0.0 2.0 28 28
+ 0.655 0 1 cbr 500 ------- 0 0.0 2.0 31 31
- 0.655 0 1 cbr 500 ------- 0 0.0 2.0 31 31
r 0.658444 1 2 cbr 500 ------- 0 0.0 2.0 26 26
r 0.659 0 1 cbr 500 ------- 0 0.0 2.0 29 29
+ 0.659 1 2 cbr 500 ------- 0 0.0 2.0 29 29
- 0.659 1 2 cbr 500 ------- 0 0.0 2.0 29 29
+ 0.66 0 1 cbr 500 ------- 0 0.0 2.0 32 32
- 0.66 0 1 cbr 500 ------- 0 0.0 2.0 32 32
r 0.663444 1 2 cbr 500 ------- 0 0.0 2.0 27 27
r 0.664 0 1 cbr 500 ------- 0 0.0 2.0 30 30
+ 0.664 1 2 cbr 500 ------- 0 0.0 2.0 30 30
- 0.664 1 2 cbr 500 ------- 0 0.0 2.0 30 30
+ 0.665 0 1 cbr 500 ------- 0 0.0 2.0 33 33
- 0.665 0 1 cbr 500 ------- 0 0.0 2.0 33 33
r 0.668444 1 2 cbr 500 ------- 0 0.0 2.0 28 28
r 0.669 0 1 cbr 500 ------- 0 0.0 2.0 31 31
+ 0.669 1 2 cbr 500 ------- 0 0.0 2.0 31 31
- 0.669 1 2 cbr 500 ------- 0 0.0 2.0 31 31
+ 0.67 0 1 cbr 500 ------- 0 0.0 2.0 34 34
- 0.67 0 1 cbr 500 ------- 0 0.0 2.0 34 34
r 0.673444 1 2 cbr 500 ------- 0 0.0 2.0 29 29
r 0.674 0 1 cbr 500 ------- 0 0.0 2.0 32 32
+ 0.674 1 2 cbr 500 ------- 0 0.0 2.0 32 32
- 0.674 1 2 cbr 500 ------- 0 0.0 2.0 32 32
+ 0.675 0 1 cbr 500 ------- 0 0.0 2.0 35 35
- 0.675 0 1 cbr 500 ------- 0 0.0 2.0 35 35
r 0.678444 1 2 cbr 500 ------- 0 0.0 2.0 30 30
r 0.679 0 1 cbr 500 ------- 0 0.0 2.0 33 33
+ 0.679 1 2 cbr 500 ------- 0 0.0 2.0 33 33
- 0.679 1 2 cbr 500 ------- 0 0.0 2.0 33 33
+ 0.68 0 1 cbr 500 ------- 0 0.0 2.0 36 36
- 0.68 0 1 cbr 500 ------- 0 0.0 2.0 36 36
r 0.683444 1 2 cbr 500 ------- 0 0.0 2.0 31 31
r 0.684 0 1 cbr 500 ------- 0 0.0 2.0 34 34
+ 0.684 1 2 cbr 500 ------- 0 0.0 2.0 34 34
- 0.684 1 2 cbr 500 ------- 0 0.0 2.0 34 34
+ 0.685 0 1 cbr 500 ------- 0 0.0 2.0 37 37
- 0.685 0 1 cbr 500 ------- 0 0.0 2.0 37 37
r 0.688444 1 2 cbr 500 ------- 0 0.0 2.0 32 32
r 0.689 0 1 cbr 500 ------- 0 0.0 2.0 35 35
+ 0.689 1 2 cbr 500 ------- 0 0.0 2.0 35 35
- 0.689 1 2 cbr 500 ------- 0 0.0 2.0 35 35
+ 0.69 0 1 cbr 500 ------- 0 0.0 2.0 38 38
- 0.69 0 1 cbr 500 ------- 0 0.0 2.0 38 38
r 0.693444 1 2 cbr 500 ------- 0 0.0 2.0 33 33
r 0.694 0 1 cbr 500 ------- 0 0.0 2.0 36 36
+ 0.694 1 2 cbr 500 ------- 0 0.0 2.0 36 36
- 0.694 1 2 cbr 500 ------- 0 0.0 2.0 36 36
+ 0.695 0 1 cbr 500 ------- 0 0.0 2.0 39 39
- 0.695 0 1 cbr 500 ------- 0 0.0 2.0 39 39
r 0.698444 1 2 cbr 500 ------- 0 0.0 2.0 34 34
r 0.699 0 1 cbr 500 ------- 0 0.0 2.0 37 37
+ 0.699 1 2 cbr 500 ------- 0 0.0 2.0 37 37
- 0.699 1 2 cbr 500 ------- 0 0.0 2.0 37 37
+ 0.7 0 1 cbr 500 ------- 0 0.0 2.0 40 40
- 0.7 0 1 cbr 500 ------- 0 0.0 2.0 40 40
r 0.703444 1 2 cbr 500 ------- 0 0.0 2.0 35 35
r 0.704 0 1 cbr 500 ------- 0 0.0 2.0 38 38
+ 0.704 1 2 cbr 500 ------- 0 0.0 2.0 38 38
- 0.704 1 2 cbr 500 ------- 0 0.0 2.0 38 38
+ 0.705 0 1 cbr 500 ------- 0 0.0 2.0 41 41
- 0.705 0 1 cbr 500 ------- 0 0.0 2.0 41 41
r 0.708444 1 2 cbr 500 ------- 0 0.0 2.0 36 36
r 0.709 0 1 cbr 500 ------- 0 0.0 2.0 39 39
+ 0.709 1 2 cbr 500 ------- 0 0.0 2.0 39 39
- 0.709 1 2 cbr 500 ------- 0 0.0 2.0 39 39
+ 0.71 0 1 cbr 500 ------- 0 0.0 2.0 42 42
- 0.71 0 1 cbr 500 ------- 0 0.0 2.0 42 42
r 0.713444 1 2 cbr 500 ------- 0 0.0 2.0 37 37
r 0.714 0 1 cbr 500 ------- 0 0.0 2.0 40 40
+ 0.714 1 2 cbr 500 ------- 0 0.0 2.0 40 40
- 0.714 1 2 cbr 500 ------- 0 0.0 2.0 40 40
+ 0.715 0 1 cbr 500 ------- 0 0.0 2.0 43 43
- 0.715 0 1 cbr 500 ------- 0 0.0 2.0 43 43
r 0.718444 1 2 cbr 500 ------- 0 0.0 2.0 38 38
r 0.719 0 1 cbr 500 ------- 0 0.0 2.0 41 41
+ 0.719 1 2 cbr 500 ------- 0 0.0 2.0 41 41
- 0.719 1 2 cbr 500 ------- 0 0.0 2.0 41 41
+ 0.72 0 1 cbr 500 ------- 0 0.0 2.0 44 44
- 0.72 0 1 cbr 500 ------- 0 0.0 2.0 44 44
r 0.723444 1 2 cbr 500 ------- 0 0.0 2.0 39 39
r 0.724 0 1 cbr 500 ------- 0 0.0 2.0 42 42
+ 0.724 1 2 cbr 500 ------- 0 0.0 2.0 42 42
- 0.724 1 2 cbr 500 ------- 0 0.0 2.0 42 42
+ 0.725 0 1 cbr 500 ------- 0 0.0 2.0 45 45
- 0.725 0 1 cbr 500 ------- 0 0.0 2.0 45 45
r 0.728444 1 2 cbr 500 ------- 0 0.0 2.0 40 40
r 0.729 0 1 cbr 500 ------- 0 0.0 2.0 43 43
+ 0.729 1 2 cbr 500 ------- 0 0.0 2.0 43 43
- 0.729 1 2 cbr 500 ------- 0 0.0 2.0 43 43
+ 0.73 0 1 cbr 500 ------- 0 0.0 2.0 46 46
- 0.73 0 1 cbr 500 ------- 0 0.0 2.0 46 46
r 0.733444 1 2 cbr 500 ------- 0 0.0 2.0 41 41
r 0.734 0 1 cbr 500 ------- 0 0.0 2.0 44 44
+ 0.734 1 2 cbr 500 ------- 0 0.0 2.0 44 44
- 0.734 1 2 cbr 500 ------- 0 0.0 2.0 44 44
+ 0.735 0 1 cbr 500 ------- 0 0.0 2.0 47 47
- 0.735 0 1 cbr 500 ------- 0 0.0 2.0 47 47
r 0.738444 1 2 cbr 500 ------- 0 0.0 2.0 42 42
r 0.739 0 1 cbr 500 ------- 0 0.0 2.0 45 45
+ 0.739 1 2 cbr 500 ------- 0 0.0 2.0 45 45
- 0.739 1 2 cbr 500 ------- 0 0.0 2.0 45 45
+ 0.74 0 1 cbr 500 ------- 0 0.0 2.0 48 48
- 0.74 0 1 cbr 500 ------- 0 0.0 2.0 48 48
r 0.743444 1 2 cbr 500 ------- 0 0.0 2.0 43 43
r 0.744 0 1 cbr 500 ------- 0 0.0 2.0 46 46
+ 0.744 1 2 cbr 500 ------- 0 0.0 2.0 46 46
- 0.744 1 2 cbr 500 ------- 0 0.0 2.0 46 46
+ 0.745 0 1 cbr 500 ------- 0 0.0 2.0 49 49
- 0.745 0 1 cbr 500 ------- 0 0.0 2.0 49 49
r 0.748444 1 2 cbr 500 ------- 0 0.0 2.0 44 44
r 0.749 0 1 cbr 500 ------- 0 0.0 2.0 47 47
+ 0.749 1 2 cbr 500 ------- 0 0.0 2.0 47 47
- 0.749 1 2 cbr 500 ------- 0 0.0 2.0 47 47
+ 0.75 0 1 cbr 500 ------- 0 0.0 2.0 50 50
- 0.75 0 1 cbr 500 ------- 0 0.0 2.0 50 50
r 0.753444 1 2 cbr 500 ------- 0 0.0 2.0 45 45
r 0.754 0 1 cbr 500 ------- 0 0.0 2.0 48 48
+ 0.754 1 2 cbr 500 ------- 0 0.0 2.0 48 48
- 0.754 1 2 cbr 500 ------- 0 0.0 2.0 48 48
+ 0.755 0 1 cbr 500 ------- 0 0.0 2.0 51 51
- 0.755 0 1 cbr 500 ------- 0 0.0 2.0 51 51
r 0.758444 1 2 cbr 500 ------- 0 0.0 2.0 46 46
r 0.759 0 1 cbr 500 ------- 0 0.0 2.0 49 49
+ 0.759 1 2 cbr 500 ------- 0 0.0 2.0 49 49
- 0.759 1 2 cbr 500 ------- 0 0.0 2.0 49 49
+ 0.76 0 1 cbr 500 ------- 0 0.0 2.0 52 52
- 0.76 0 1 cbr 500 ------- 0 0.0 2.0 52 52
r 0.763444 1 2 cbr 500 ------- 0 0.0 2.0 47 47
r 0.764 0 1 cbr 500 ------- 0 0.0 2.0 50 50
+ 0.764 1 2 cbr 500 ------- 0 0.0 2.0 50 50
- 0.764 1 2 cbr 500 ------- 0 0.0 2.0 50 50
+ 0.765 0 1 cbr 500 ------- 0 0.0 2.0 53 53
- 0.765 0 1 cbr 500 ------- 0 0.0 2.0 53 53
r 0.768444 1 2 cbr 500 ------- 0 0.0 2.0 48 48
r 0.769 0 1 cbr 500 ------- 0 0.0 2.0 51 51
+ 0.769 1 2 cbr 500 ------- 0 0.0 2.0 51 51
- 0.769 1 2 cbr 500 ------- 0 0.0 2.0 51 51
+ 0.77 0 1 cbr 500 ------- 0 0.0 2.0 54 54
- 0.77 0 1 cbr 500 ------- 0 0.0 2.0 54 54
r 0.773444 1 2 cbr 500 ------- 0 0.0 2.0 49 49
r 0.774 0 1 cbr 500 ------- 0 0.0 2.0 52 52
+ 0.774 1 2 cbr 500 ------- 0 0.0 2.0 52 52
- 0.774 1 2 cbr 500 ------- 0 0.0 2.0 52 52
+ 0.775 0 1 cbr 500 ------- 0 0.0 2.0 55 55
- 0.775 0 1 cbr 500 ------- 0 0.0 2.0 55 55
r 0.778444 1 2 cbr 500 ------- 0 0.0 2.0 50 50
r 0.779 0 1 cbr 500 ------- 0 0.0 2.0 53 53
+ 0.779 1 2 cbr 500 ------- 0 0.0 2.0 53 53
- 0.779 1 2 cbr 500 ------- 0 0.0 2.0 53 53
+ 0.78 0 1 cbr 500 ------- 0 0.0 2.0 56 56
- 0.78 0 1 cbr 500 ------- 0 0.0 2.0 56 56
r 0.783444 1 2 cbr 500 ------- 0 0.0 2.0 51 51
r 0.784 0 1 cbr 500 ------- 0 0.0 2.0 54 54
+ 0.784 1 2 cbr 500 ------- 0 0.0 2.0 54 54
- 0.784 1 2 cbr 500 ------- 0 0.0 2.0 54 54
+ 0.785 0 1 cbr 500 ------- 0 0.0 2.0 57 57
- 0.785 0 1 cbr 500 ------- 0 0.0 2.0 57 57
r 0.788444 1 2 cbr 500 ------- 0 0.0 2.0 52 52
r 0.789 0 1 cbr 500 ------- 0 0.0 2.0 55 55
+ 0.789 1 2 cbr 500 ------- 0 0.0 2.0 55 55
- 0.789 1 2 cbr 500 ------- 0 0.0 2.0 55 55
+ 0.79 0 1 cbr 500 ------- 0 0.0 2.0 58 58
- 0.79 0 1 cbr 500 ------- 0 0.0 2.0 58 58
r 0.793444 1 2 cbr 500 ------- 0 0.0 2.0 53 53
r 0.794 0 1 cbr 500 ------- 0 0.0 2.0 56 56
+ 0.794 1 2 cbr 500 ------- 0 0.0 2.0 56 56
- 0.794 1 2 cbr 500 ------- 0 0.0 2.0 56 56
+ 0.795 0 1 cbr 500 ------- 0 0.0 2.0 59 59
- 0.795 0 1 cbr 500 ------- 0 0.0 2.0 59 59
r 0.798444 1 2 cbr 500 ------- 0 0.0 2.0 54 54
r 0.799 0 1 cbr 500 ------- 0 0.0 2.0 57 57
+ 0.799 1 2 cbr 500 ------- 0 0.0 2.0 57 57
- 0.799 1 2 cbr 500 ------- 0 0.0 2.0 57 57
+ 0.8 0 1 cbr 500 ------- 0 0.0 2.0 60 60
- 0.8 0 1 cbr 500 ------- 0 0.0 2.0 60 60
r 0.803444 1 2 cbr 500 ------- 0 0.0 2.0 55 55
r 0.804 0 1 cbr 500 ------- 0 0.0 2.0 58 58
+ 0.804 1 2 cbr 500 ------- 0 0.0 2.0 58 58
- 0.804 1 2 cbr 500 ------- 0 0.0 2.0 58 58
+ 0.805 0 1 cbr 500 ------- 0 0.0 2.0 61 61
- 0.805 0 1 cbr 500 ------- 0 0.0 2.0 61 61
r 0.808444 1 2 cbr 500 ------- 0 0.0 2.0 56 56
r 0.809 0 1 cbr 500 ------- 0 0.0 2.0 59 59
+ 0.809 1 2 cbr 500 ------- 0 0.0 2.0 59 59
- 0.809 1 2 cbr 500 ------- 0 0.0 2.0 59 59
+ 0.81 0 1 cbr 500 ------- 0 0.0 2.0 62 62
- 0.81 0 1 cbr 500 ------- 0 0.0 2.0 62 62
r 0.813444 1 2 cbr 500 ------- 0 0.0 2.0 57 57
r 0.814 0 1 cbr 500 ------- 0 0.0 2.0 60 60
+ 0.814 1 2 cbr 500 ------- 0 0.0 2.0 60 60
- 0.814 1 2 cbr 500 ------- 0 0.0 2.0 60 60
+ 0.815 0 1 cbr 500 ------- 0 0.0 2.0 63 63
- 0.815 0 1 cbr 500 ------- 0 0.0 2.0 63 63
r 0.818444 1 2 cbr 500 ------- 0 0.0 2.0 58 58
r 0.819 0 1 cbr 500 ------- 0 0.0 2.0 61 61
+ 0.819 1 2 cbr 500 ------- 0 0.0 2.0 61 61
- 0.819 1 2 cbr 500 ------- 0 0.0 2.0 61 61
+ 0.82 0 1 cbr 500 ------- 0 0.0 2.0 64 64
- 0.82 0 1 cbr 500 ------- 0 0.0 2.0 64 64
r 0.823444 1 2 cbr 500 ------- 0 0.0 2.0 59 59
r 0.824 0 1 cbr 500 ------- 0 0.0 2.0 62 62
+ 0.824 1 2 cbr 500 ------- 0 0.0 2.0 62 62
- 0.824 1 2 cbr 500 ------- 0 0.0 2.0 62 62
+ 0.825 0 1 cbr 500 ------- 0 0.0 2.0 65 65
- 0.825 0 1 cbr 500 ------- 0 0.0 2.0 65 65
r 0.828444 1 2 cbr 500 ------- 0 0.0 2.0 60 60
r 0.829 0 1 cbr 500 ------- 0 0.0 2.0 63 63
+ 0.829 1 2 cbr 500 ------- 0 0.0 2.0 63 63
- 0.829 1 2 cbr 500 ------- 0 0.0 2.0 63 63
+ 0.83 0 1 cbr 500 ------- 0 0.0 2.0 66 66
- 0.83 0 1 cbr 500 ------- 0 0.0 2.0 66 66
r 0.833444 1 2 cbr 500 ------- 0 0.0 2.0 61 61
r 0.834 0 1 cbr 500 ------- 0 0.0 2.0 64 64
+ 0.834 1 2 cbr 500 ------- 0 0.0 2.0 64 64
- 0.834 1 2 cbr 500 ------- 0 0.0 2.0 64 64
+ 0.835 0 1 cbr 500 ------- 0 0.0 2.0 67 67
- 0.835 0 1 cbr 500 ------- 0 0.0 2.0 67 67
r 0.838444 1 2 cbr 500 ------- 0 0.0 2.0 62 62
r 0.839 0 1 cbr 500 ------- 0 0.0 2.0 65 65
+ 0.839 1 2 cbr 500 ------- 0 0.0 2.0 65 65
- 0.839 1 2 cbr 500 ------- 0 0.0 2.0 65 65
+ 0.84 0 1 cbr 500 ------- 0 0.0 2.0 68 68
- 0.84 0 1 cbr 500 ------- 0 0.0 2.0 68 68
r 0.843444 1 2 cbr 500 ------- 0 0.0 2.0 63 63
r 0.844 0 1 cbr 500 ------- 0 0.0 2.0 66 66
+ 0.844 1 2 cbr 500 ------- 0 0.0 2.0 66 66
- 0.844 1 2 cbr 500 ------- 0 0.0 2.0 66 66
+ 0.845 0 1 cbr 500 ------- 0 0.0 2.0 69 69
- 0.845 0 1 cbr 500 ------- 0 0.0 2.0 69 69
r 0.848444 1 2 cbr 500 ------- 0 0.0 2.0 64 64
r 0.849 0 1 cbr 500 ------- 0 0.0 2.0 67 67
+ 0.849 1 2 cbr 500 ------- 0 0.0 2.0 67 67
- 0.849 1 2 cbr 500 ------- 0 0.0 2.0 67 67
+ 0.85 0 1 cbr 500 ------- 0 0.0 2.0 70 70
- 0.85 0 1 cbr 500 ------- 0 0.0 2.0 70 70
r 0.853444 1 2 cbr 500 ------- 0 0.0 2.0 65 65
r 0.854 0 1 cbr 500 ------- 0 0.0 2.0 68 68
+ 0.854 1 2 cbr 500 ------- 0 0.0 2.0 68 68
- 0.854 1 2 cbr 500 ------- 0 0.0 2.0 68 68
+ 0.855 0 1 cbr 500 ------- 0 0.0 2.0 71 71
- 0.855 0 1 cbr 500 ------- 0 0.0 2.0 71 71
r 0.858444 1 2 cbr 500 ------- 0 0.0 2.0 66 66
r 0.859 0 1 cbr 500 ------- 0 0.0 2.0 69 69
+ 0.859 1 2 cbr 500 ------- 0 0.0 2.0 69 69
- 0.859 1 2 cbr 500 ------- 0 0.0 2.0 69 69
+ 0.86 0 1 cbr 500 ------- 0 0.0 2.0 72 72
- 0.86 0 1 cbr 500 ------- 0 0.0 2.0 72 72
r 0.863444 1 2 cbr 500 ------- 0 0.0 2.0 67 67
r 0.864 0 1 cbr 500 ------- 0 0.0 2.0 70 70
+ 0.864 1 2 cbr 500 ------- 0 0.0 2.0 70 70
- 0.864 1 2 cbr 500 ------- 0 0.0 2.0 70 70
+ 0.865 0 1 cbr 500 ------- 0 0.0 2.0 73 73
- 0.865 0 1 cbr 500 ------- 0 0.0 2.0 73 73
r 0.868444 1 2 cbr 500 ------- 0 0.0 2.0 68 68
r 0.869 0 1 cbr 500 ------- 0 0.0 2.0 71 71
+ 0.869 1 2 cbr 500 ------- 0 0.0 2.0 71 71
- 0.869 1 2 cbr 500 ------- 0 0.0 2.0 71 71
+ 0.87 0 1 cbr 500 ------- 0 0.0 2.0 74 74
- 0.87 0 1 cbr 500 ------- 0 0.0 2.0 74 74
r 0.873444 1 2 cbr 500 ------- 0 0.0 2.0 69 69
r 0.874 0 1 cbr 500 ------- 0 0.0 2.0 72 72
+ 0.874 1 2 cbr 500 ------- 0 0.0 2.0 72 72
- 0.874 1 2 cbr 500 ------- 0 0.0 2.0 72 72
+ 0.875 0 1 cbr 500 ------- 0 0.0 2.0 75 75
- 0.875 0 1 cbr 500 ------- 0 0.0 2.0 75 75
r 0.878444 1 2 cbr 500 ------- 0 0.0 2.0 70 70
r 0.879 0 1 cbr 500 ------- 0 0.0 2.0 73 73
+ 0.879 1 2 cbr 500 ------- 0 0.0 2.0 73 73
- 0.879 1 2 cbr 500 ------- 0 0.0 2.0 73 73
+ 0.88 0 1 cbr 500 ------- 0 0.0 2.0 76 76
- 0.88 0 1 cbr 500 ------- 0 0.0 2.0 76 76
r 0.883444 1 2 cbr 500 ------- 0 0.0 2.0 71 71
r 0.884 0 1 cbr 500 ------- 0 0.0 2.0 74 74
+ 0.884 1 2 cbr 500 ------- 0 0.0 2.0 74 74
- 0.884 1 2 cbr 500 ------- 0 0.0 2.0 74 74
+ 0.885 0 1 cbr 500 ------- 0 0.0 2.0 77 77
- 0.885 0 1 cbr 500 ------- 0 0.0 2.0 77 77
r 0.888444 1 2 cbr 500 ------- 0 0.0 2.0 72 72
r 0.889 0 1 cbr 500 ------- 0 0.0 2.0 75 75
+ 0.889 1 2 cbr 500 ------- 0 0.0 2.0 75 75
- 0.889 1 2 cbr 500 ------- 0 0.0 2.0 75 75
+ 0.89 0 1 cbr 500 ------- 0 0.0 2.0 78 78
- 0.89 0 1 cbr 500 ------- 0 0.0 2.0 78 78
r 0.893444 1 2 cbr 500 ------- 0 0.0 2.0 73 73
r 0.894 0 1 cbr 500 ------- 0 0.0 2.0 76 76
+ 0.894 1 2 cbr 500 ------- 0 0.0 2.0 76 76
- 0.894 1 2 cbr 500 ------- 0 0.0 2.0 76 76
+ 0.895 0 1 cbr 500 ------- 0 0.0 2.0 79 79
- 0.895 0 1 cbr 500 ------- 0 0.0 2.0 79 79
r 0.898444 1 2 cbr 500 ------- 0 0.0 2.0 74 74
r 0.899 0 1 cbr 500 ------- 0 0.0 2.0 77 77
+ 0.899 1 2 cbr 500 ------- 0 0.0 2.0 77 77
- 0.899 1 2 cbr 500 ------- 0 0.0 2.0 77 77
+ 0.9 0 1 cbr 500 ------- 0 0.0 2.0 80 80
- 0.9 0 1 cbr 500 ------- 0 0.0 2.0 80 80
r 0.903444 1 2 cbr 500 ------- 0 0.0 2.0 75 75
r 0.904 0 1 cbr 500 ------- 0 0.0 2.0 78 78
+ 0.904 1 2 cbr 500 ------- 0 0.0 2.0 78 78
- 0.904 1 2 cbr 500 ------- 0 0.0 2.0 78 78
+ 0.905 0 1 cbr 500 ------- 0 0.0 2.0 81 81
- 0.905 0 1 cbr 500 ------- 0 0.0 2.0 81 81
r 0.908444 1 2 cbr 500 ------- 0 0.0 2.0 76 76
r 0.909 0 1 cbr 500 ------- 0 0.0 2.0 79 79
+ 0.909 1 2 cbr 500 ------- 0 0.0 2.0 79 79
- 0.909 1 2 cbr 500 ------- 0 0.0 2.0 79 79
+ 0.91 0 1 cbr 500 ------- 0 0.0 2.0 82 82
- 0.91 0 1 cbr 500 ------- 0 0.0 2.0 82 82
r 0.913444 1 2 cbr 500 ------- 0 0.0 2.0 77 77
r 0.914 0 1 cbr 500 ------- 0 0.0 2.0 80 80
+ 0.914 1 2 cbr 500 ------- 0 0.0 2.0 80 80
- 0.914 1 2 cbr 500 ------- 0 0.0 2.0 80 80
+ 0.915 0 1 cbr 500 ------- 0 0.0 2.0 83 83
- 0.915 0 1 cbr 500 ------- 0 0.0 2.0 83 83
r 0.918444 1 2 cbr 500 ------- 0 0.0 2.0 78 78
r 0.919 0 1 cbr 500 ------- 0 0.0 2.0 81 81
+ 0.919 1 2 cbr 500 ------- 0 0.0 2.0 81 81
- 0.919 1 2 cbr 500 ------- 0 0.0 2.0 81 81
+ 0.92 0 1 cbr 500 ------- 0 0.0 2.0 84 84
- 0.92 0 1 cbr 500 ------- 0 0.0 2.0 84 84
r 0.923444 1 2 cbr 500 ------- 0 0.0 2.0 79 79
r 0.924 0 1 cbr 500 ------- 0 0.0 2.0 82 82
+ 0.924 1 2 cbr 500 ------- 0 0.0 2.0 82 82
- 0.924 1 2 cbr 500 ------- 0 0.0 2.0 82 82
+ 0.925 0 1 cbr 500 ------- 0 0.0 2.0 85 85
- 0.925 0 1 cbr 500 ------- 0 0.0 2.0 85 85
r 0.928444 1 2 cbr 500 ------- 0 0.0 2.0 80 80
r 0.929 0 1 cbr 500 ------- 0 0.0 2.0 83 83
+ 0.929 1 2 cbr 500 ------- 0 0.0 2.0 83 83
- 0.929 1 2 cbr 500 ------- 0 0.0 2.0 83 83
+ 0.93 0 1 cbr 500 ------- 0 0.0 2.0 86 86
- 0.93 0 1 cbr 500 ------- 0 0.0 2.0 86 86
r 0.933444 1 2 cbr 500 ------- 0 0.0 2.0 81 81
r 0.934 0 1 cbr 500 ------- 0 0.0 2.0 84 84
+ 0.934 1 2 cbr 500 ------- 0 0.0 2.0 84 84
- 0.934 1 2 cbr 500 ------- 0 0.0 2.0 84 84
+ 0.935 0 1 cbr 500 ------- 0 0.0 2.0 87 87
- 0.935 0 1 cbr 500 ------- 0 0.0 2.0 87 87
r 0.938444 1 2 cbr 500 ------- 0 0.0 2.0 82 82
r 0.939 0 1 cbr 500 ------- 0 0.0 2.0 85 85
+ 0.939 1 2 cbr 500 ------- 0 0.0 2.0 85 85
- 0.939 1 2 cbr 500 ------- 0 0.0 2.0 85 85
+ 0.94 0 1 cbr 500 ------- 0 0.0 2.0 88 88
- 0.94 0 1 cbr 500 ------- 0 0.0 2.0 88 88
r 0.943444 1 2 cbr 500 ------- 0 0.0 2.0 83 83
r 0.944 0 1 cbr 500 ------- 0 0.0 2.0 86 86
+ 0.944 1 2 cbr 500 ------- 0 0.0 2.0 86 86
- 0.944 1 2 cbr 500 ------- 0 0.0 2.0 86 86
+ 0.945 0 1 cbr 500 ------- 0 0.0 2.0 89 89
- 0.945 0 1 cbr 500 ------- 0 0.0 2.0 89 89
r 0.948444 1 2 cbr 500 ------- 0 0.0 2.0 84 84
r 0.949 0 1 cbr 500 ------- 0 0.0 2.0 87 87
+ 0.949 1 2 cbr 500 ------- 0 0.0 2.0 87 87
- 0.949 1 2 cbr 500 ------- 0 0.0 2.0 87 87
+ 0.95 0 1 cbr 500 ------- 0 0.0 2.0 90 90
- 0.95 0 1 cbr 500 ------- 0 0.0 2.0 90 90
r 0.953444 1 2 cbr 500 ------- 0 0.0 2.0 85 85
r 0.954 0 1 cbr 500 ------- 0 0.0 2.0 88 88
+ 0.954 1 2 cbr 500 ------- 0 0.0 2.0 88 88
- 0.954 1 2 cbr 500 ------- 0 0.0 2.0 88 88
+ 0.955 0 1 cbr 500 ------- 0 0.0 2.0 91 91
- 0.955 0 1 cbr 500 ------- 0 0.0 2.0 91 91
r 0.958444 1 2 cbr 500 ------- 0 0.0 2.0 86 86
r 0.959 0 1 cbr 500 ------- 0 0.0 2.0 89 89
+ 0.959 1 2 cbr 500 ------- 0 0.0 2.0 89 89
- 0.959 1 2 cbr 500 ------- 0 0.0 2.0 89 89
+ 0.96 0 1 cbr 500 ------- 0 0.0 2.0 92 92
- 0.96 0 1 cbr 500 ------- 0 0.0 2.0 92 92
r 0.963444 1 2 cbr 500 ------- 0 0.0 2.0 87 87
r 0.964 0 1 cbr 500 ------- 0 0.0 2.0 90 90
+ 0.964 1 2 cbr 500 ------- 0 0.0 2.0 90 90
- 0.964 1 2 cbr 500 ------- 0 0.0 2.0 90 90
+ 0.965 0 1 cbr 500 ------- 0 0.0 2.0 93 93
- 0.965 0 1 cbr 500 ------- 0 0.0 2.0 93 93
r 0.968444 1 2 cbr 500 ------- 0 0.0 2.0 88 88
r 0.969 0 1 cbr 500 ------- 0 0.0 2.0 91 91
+ 0.969 1 2 cbr 500 ------- 0 0.0 2.0 91 91
- 0.969 1 2 cbr 500 ------- 0 0.0 2.0 91 91
+ 0.97 0 1 cbr 500 ------- 0 0.0 2.0 94 94
- 0.97 0 1 cbr 500 ------- 0 0.0 2.0 94 94
r 0.973444 1 2 cbr 500 ------- 0 0.0 2.0 89 89
r 0.974 0 1 cbr 500 ------- 0 0.0 2.0 92 92
+ 0.974 1 2 cbr 500 ------- 0 0.0 2.0 92 92
- 0.974 1 2 cbr 500 ------- 0 0.0 2.0 92 92
+ 0.975 0 1 cbr 500 ------- 0 0.0 2.0 95 95
- 0.975 0 1 cbr 500 ------- 0 0.0 2.0 95 95
r 0.978444 1 2 cbr 500 ------- 0 0.0 2.0 90 90
r 0.979 0 1 cbr 500 ------- 0 0.0 2.0 93 93
+ 0.979 1 2 cbr 500 ------- 0 0.0 2.0 93 93
- 0.979 1 2 cbr 500 ------- 0 0.0 2.0 93 93
+ 0.98 0 1 cbr 500 ------- 0 0.0 2.0 96 96
- 0.98 0 1 cbr 500 ------- 0 0.0 2.0 96 96
r 0.983444 1 2 cbr 500 ------- 0 0.0 2.0 91 91
r 0.984 0 1 cbr 500 ------- 0 0.0 2.0 94 94
+ 0.984 1 2 cbr 500 ------- 0 0.0 2.0 94 94
- 0.984 1 2 cbr 500 ------- 0 0.0 2.0 94 94
+ 0.985 0 1 cbr 500 ------- 0 0.0 2.0 97 97
- 0.985 0 1 cbr 500 ------- 0 0.0 2.0 97 97
r 0.988444 1 2 cbr 500 ------- 0 0.0 2.0 92 92
r 0.989 0 1 cbr 500 ------- 0 0.0 2.0 95 95
+ 0.989 1 2 cbr 500 ------- 0 0.0 2.0 95 95
- 0.989 1 2 cbr 500 ------- 0 0.0 2.0 95 95
+ 0.99 0 1 cbr 500 ------- 0 0.0 2.0 98 98
- 0.99 0 1 cbr 500 ------- 0 0.0 2.0 98 98
r 0.993444 1 2 cbr 500 ------- 0 0.0 2.0 93 93
r 0.994 0 1 cbr 500 ------- 0 0.0 2.0 96 96
+ 0.994 1 2 cbr 500 ------- 0 0.0 2.0 96 96
- 0.994 1 2 cbr 500 ------- 0 0.0 2.0 96 96
+ 0.995 0 1 cbr 500 ------- 0 0.0 2.0 99 99
- 0.995 0 1 cbr 500 ------- 0 0.0 2.0 99 99
r 0.998444 1 2 cbr 500 ------- 0 0.0 2.0 94 94
r 0.999 0 1 cbr 500 ------- 0 0.0 2.0 97 97
+ 0.999 1 2 cbr 500 ------- 0 0.0 2.0 97 97
- 0.999 1 2 cbr 500 ------- 0 0.0 2.0 97 97
+ 1 0 1 cbr 500 ------- 0 0.0 2.0 100 100
- 1 0 1 cbr 500 ------- 0 0.0 2.0 100 100
r 1.003444 1 2 cbr 500 ------- 0 0.0 2.0 95 95
r 1.004 0 1 cbr 500 ------- 0 0.0 2.0 98 98
+ 1.004 1 2 cbr 500 ------- 0 0.0 2.0 98 98
- 1.004 1 2 cbr 500 ------- 0 0.0 2.0 98 98
+ 1.005 0 1 cbr 500 ------- 0 0.0 2.0 101 101
- 1.005 0 1 cbr 500 ------- 0 0.0 2.0 101 101
r 1.008444 1 2 cbr 500 ------- 0 0.0 2.0 96 96
r 1.009 0 1 cbr 500 ------- 0 0.0 2.0 99 99
+ 1.009 1 2 cbr 500 ------- 0 0.0 2.0 99 99
- 1.009 1 2 cbr 500 ------- 0 0.0 2.0 99 99
+ 1.01 0 1 cbr 500 ------- 0 0.0 2.0 102 102
- 1.01 0 1 cbr 500 ------- 0 0.0 2.0 102 102
r 1.013444 1 2 cbr 500 ------- 0 0.0 2.0 97 97
r 1.014 0 1 cbr 500 ------- 0 0.0 2.0 100 100
+ 1.014 1 2 cbr 500 ------- 0 0.0 2.0 100 100
- 1.014 1 2 cbr 500 ------- 0 0.0 2.0 100 100
+ 1.015 0 1 cbr 500 ------- 0 0.0 2.0 103 103
- 1.015 0 1 cbr 500 ------- 0 0.0 2.0 103 103
r 1.018444 1 2 cbr 500 ------- 0 0.0 2.0 98 98
r 1.019 0 1 cbr 500 ------- 0 0.0 2.0 101 101
+ 1.019 1 2 cbr 500 ------- 0 0.0 2.0 101 101
- 1.019 1 2 cbr 500 ------- 0 0.0 2.0 101 101
+ 1.02 0 1 cbr 500 ------- 0 0.0 2.0 104 104
- 1.02 0 1 cbr 500 ------- 0 0.0 2.0 104 104
r 1.023444 1 2 cbr 500 ------- 0 0.0 2.0 99 99
r 1.024 0 1 cbr 500 ------- 0 0.0 2.0 102 102
+ 1.024 1 2 cbr 500 ------- 0 0.0 2.0 102 102
- 1.024 1 2 cbr 500 ------- 0 0.0 2.0 102 102
+ 1.025 0 1 cbr 500 ------- 0 0.0 2.0 105 105
- 1.025 0 1 cbr 500 ------- 0 0.0 2.0 105 105
r 1.028444 1 2 cbr 500 ------- 0 0.0 2.0 100 100
r 1.029 0 1 cbr 500 ------- 0 0.0 2.0 103 103
+ 1.029 1 2 cbr 500 ------- 0 0.0 2.0 103 103
- 1.029 1 2 cbr 500 ------- 0 0.0 2.0 103 103
+ 1.03 0 1 cbr 500 ------- 0 0.0 2.0 106 106
- 1.03 0 1 cbr 500 ------- 0 0.0 2.0 106 106
r 1.033444 1 2 cbr 500 ------- 0 0.0 2.0 101 101
r 1.034 0 1 cbr 500 ------- 0 0.0 2.0 104 104
+ 1.034 1 2 cbr 500 ------- 0 0.0 2.0 104 104
- 1.034 1 2 cbr 500 ------- 0 0.0 2.0 104 104
+ 1.035 0 1 cbr 500 ------- 0 0.0 2.0 107 107
- 1.035 0 1 cbr 500 ------- 0 0.0 2.0 107 107
r 1.038444 1 2 cbr 500 ------- 0 0.0 2.0 102 102
r 1.039 0 1 cbr 500 ------- 0 0.0 2.0 105 105
+ 1.039 1 2 cbr 500 ------- 0 0.0 2.0 105 105
- 1.039 1 2 cbr 500 ------- 0 0.0 2.0 105 105
+ 1.04 0 1 cbr 500 ------- 0 0.0 2.0 108 108
- 1.04 0 1 cbr 500 ------- 0 0.0 2.0 108 108
r 1.043444 1 2 cbr 500 ------- 0 0.0 2.0 103 103
r 1.044 0 1 cbr 500 ------- 0 0.0 2.0 106 106
+ 1.044 1 2 cbr 500 ------- 0 0.0 2.0 106 106
- 1.044 1 2 cbr 500 ------- 0 0.0 2.0 106 106
+ 1.045 0 1 cbr 500 ------- 0 0.0 2.0 109 109
- 1.045 0 1 cbr 500 ------- 0 0.0 2.0 109 109
r 1.048444 1 2 cbr 500 ------- 0 0.0 2.0 104 104
r 1.049 0 1 cbr 500 ------- 0 0.0 2.0 107 107
+ 1.049 1 2 cbr 500 ------- 0 0.0 2.0 107 107
- 1.049 1 2 cbr 500 ------- 0 0.0 2.0 107 107
+ 1.05 0 1 cbr 500 ------- 0 0.0 2.0 110 110
- 1.05 0 1 cbr 500 ------- 0 0.0 2.0 110 110
r 1.053444 1 2 cbr 500 ------- 0 0.0 2.0 105 105
r 1.054 0 1 cbr 500 ------- 0 0.0 2.0 108 108
+ 1.054 1 2 cbr 500 ------- 0 0.0 2.0 108 108
- 1.054 1 2 cbr 500 ------- 0 0.0 2.0 108 108
+ 1.055 0 1 cbr 500 ------- 0 0.0 2.0 111 111
- 1.055 0 1 cbr 500 ------- 0 0.0 2.0 111 111
r 1.058444 1 2 cbr 500 ------- 0 0.0 2.0 106 106
r 1.059 0 1 cbr 500 ------- 0 0.0 2.0 109 109
+ 1.059 1 2 cbr 500 ------- 0 0.0 2.0 109 109
- 1.059 1 2 cbr 500 ------- 0 0.0 2.0 109 109
+ 1.06 0 1 cbr 500 ------- 0 0.0 2.0 112 112
- 1.06 0 1 cbr 500 ------- 0 0.0 2.0 112 112
r 1.063444 1 2 cbr 500 ------- 0 0.0 2.0 107 107
r 1.064 0 1 cbr 500 ------- 0 0.0 2.0 110 110
+ 1.064 1 2 cbr 500 ------- 0 0.0 2.0 110 110
- 1.064 1 2 cbr 500 ------- 0 0.0 2.0 110 110
+ 1.065 0 1 cbr 500 ------- 0 0.0 2.0 113 113
- 1.065 0 1 cbr 500 ------- 0 0.0 2.0 113 113
r 1.068444 1 2 cbr 500 ------- 0 0.0 2.0 108 108
r 1.069 0 1 cbr 500 ------- 0 0.0 2.0 111 111
+ 1.069 1 2 cbr 500 ------- 0 0.0 2.0 111 111
- 1.069 1 2 cbr 500 ------- 0 0.0 2.0 111 111
+ 1.07 0 1 cbr 500 ------- 0 0.0 2.0 114 114
- 1.07 0 1 cbr 500 ------- 0 0.0 2.0 114 114
r 1.073444 1 2 cbr 500 ------- 0 0.0 2.0 109 109