+ 0.5 0 1 cbr 500 ------- 0 0.0 2.0 0 0
- 0.5 0 1 cbr 500 ------- 0 0.0 2.0 0 0
r 0.55 0 1 cbr 500 ------- 0 0.0 2.0 0 0
+ 0.55 1 2 cbr 500 ------- 0 0.0 2.0 0 0
- 0.55 1 2 cbr 500 ------- 0 0.0 2.0 0 0
+ 0.55 0 1 cbr 500 ------- 0 0.0 2.0 1 1
- 0.55 0 1 cbr 500 ------- 0 0.0 2.0 1 1
r 0.6 1 2 cbr 500 ------- 0 0.0 2.0 0 0
r 0.6 0 1 cbr 500 ------- 0 0.0 2.0 1 1
+ 0.6 1 2 cbr 500 ------- 0 0.0 2.0 1 1
- 0.6 1 2 cbr 500 ------- 0 0.0 2.0 1 1
+ 0.6 0 1 cbr 500 ------- 0 0.0 2.0 2 2
- 0.6 0 1 cbr 500 ------- 0 0.0 2.0 2 2
r 0.65 1 2 cbr 500 ------- 0 0.0 2.0 1 1
r 0.65 0 1 cbr 500 ------- 0 0.0 2.0 2 2
+ 0.65 1 2 cbr 500 ------- 0 0.0 2.0 2 2
- 0.65 1 2 cbr 500 ------- 0 0.0 2.0 2 2
+ 0.65 0 1 cbr 500 ------- 0 0.0 2.0 3 3
- 0.65 0 1 cbr 500 ------- 0 0.0 2.0 3 3
r 0.7 1 2 cbr 500 ------- 0 0.0 2.0 2 2
r 0.7 0 1 cbr 500 ------- 0 0.0 2.0 3 3
+ 0.7 1 2 cbr 500 ------- 0 0.0 2.0 3 3
- 0.7 1 2 cbr 500 ------- 0 0.0 2.0 3 3
+ 0.7 0 1 cbr 500 ------- 0 0.0 2.0 4 4
- 0.7 0 1 cbr 500 ------- 0 0.0 2.0 4 4
r 0.75 1 2 cbr 500 ------- 0 0.0 2.0 3 3
r 0.75 0 1 cbr 500 ------- 0 0.0 2.0 4 4
+ 0.75 1 2 cbr 500 ------- 0 0.0 2.0 4 4
- 0.75 1 2 cbr 500 ------- 0 0.0 2.0 4 4
+ 0.75 0 1 cbr 500 ------- 0 0.0 2.0 5 5
- 0.75 0 1 cbr 500 ------- 0 0.0 2.0 5 5
r 0.8 1 2 cbr 500 ------- 0 0.0 2.0 4 4
r 0.8 0 1 cbr 500 ------- 0 0.0 2.0 5 5
+ 0.8 1 2 cbr 500 ------- 0 0.0 2.0 5 5
- 0.8 1 2 cbr 500 ------- 0 0.0 2.0 5 5
+ 0.8 0 1 cbr 500 ------- 0 0.0 2.0 6 6
- 0.8 0 1 cbr 500 ------- 0 0.0 2.0 6 6
r 0.85 1 2 cbr 500 ------- 0 0.0 2.0 5 5
r 0.85 0 1 cbr 500 ------- 0 0.0 2.0 6 6
+ 0.85 1 2 cbr 500 ------- 0 0.0 2.0 6 6
- 0.85 1 2 cbr 500 ------- 0 0.0 2.0 6 6
+ 0.85 0 1 cbr 500 ------- 0 0.0 2.0 7 7
- 0.85 0 1 cbr 500 ------- 0 0.0 2.0 7 7
r 0.9 1 2 cbr 500 ------- 0 0.0 2.0 6 6
r 0.9 0 1 cbr 500 ------- 0 0.0 2.0 7 7
+ 0.9 1 2 cbr 500 ------- 0 0.0 2.0 7 7
- 0.9 1 2 cbr 500 ------- 0 0.0 2.0 7 7
+ 0.9 0 1 cbr 500 ------- 0 0.0 2.0 8 8
- 0.9 0 1 cbr 500 ------- 0 0.0 2.0 8 8
r 0.95 1 2 cbr 500 ------- 0 0.0 2.0 7 7
r 0.95 0 1 cbr 500 ------- 0 0.0 2.0 8 8
+ 0.95 1 2 cbr 500 ------- 0 0.0 2.0 8 8
- 0.95 1 2 cbr 500 ------- 0 0.0 2.0 8 8
+ 0.95 0 1 cbr 500 ------- 0 0.0 2.0 9 9
- 0.95 0 1 cbr 500 ------- 0 0.0 2.0 9 9
r 1 1 2 cbr 500 ------- 0 0.0 2.0 8 8
r 1 0 1 cbr 500 ------- 0 0.0 2.0 9 9
+ 1 1 2 cbr 500 ------- 0 0.0 2.0 9 9
- 1 1 2 cbr 500 ------- 0 0.0 2.0 9 9
+ 1 0 1 cbr 500 ------- 0 0.0 2.0 10 10
- 1 0 1 cbr 500 ------- 0 0.0 2.0 10 10
r 1.05 1 2 cbr 500 ------- 0 0.0 2.0 9 9
r 1.05 0 1 cbr 500 ------- 0 0.0 2.0 10 10
+ 1.05 1 2 cbr 500 ------- 0 0.0 2.0 10 10
- 1.05 1 2 cbr 500 ------- 0 0.0 2.0 10 10
+ 1.05 0 1 cbr 500 ------- 0 0.0 2.0 11 11
- 1.05 0 1 cbr 500 ------- 0 0.0 2.0 11 11
r 1.1 1 2 cbr 500 ------- 0 0.0 2.0 10 10
r 1.1 0 1 cbr 500 ------- 0 0.0 2.0 11 11
+ 1.1 1 2 cbr 500 ------- 0 0.0 2.0 11 11
- 1.1 1 2 cbr 500 ------- 0 0.0 2.0 11 11
+ 1.1 0 1 cbr 500 ------- 0 0.0 2.0 12 12
- 1.1 0 1 cbr 500 ------- 0 0.0 2.0 12 12
r 1.15 1 2 cbr 500 ------- 0 0.0 2.0 11 11
r 1.15 0 1 cbr 500 ------- 0 0.0 2.0 12 12
+ 1.15 1 2 cbr 500 ------- 0 0.0 2.0 12 12
- 1.15 1 2 cbr 500 ------- 0 0.0 2.0 12 12
+ 1.15 0 1 cbr 500 ------- 0 0.0 2.0 13 13
- 1.15 0 1 cbr 500 ------- 0 0.0 2.0 13 13
r 1.2 1 2 cbr 500 ------- 0 0.0 2.0 12 12
r 1.2 0 1 cbr 500 ------- 0 0.0 2.0 13 13
+ 1.2 1 2 cbr 500 ------- 0 0.0 2.0 13 13
- 1.2 1 2 cbr 500 ------- 0 0.0 2.0 13 13
+ 1.2 0 1 cbr 500 ------- 0 0.0 2.0 14 14
- 1.2 0 1 cbr 500 ------- 0 0.0 2.0 14 14
r 1.25 1 2 cbr 500 ------- 0 0.0 2.0 13 13
r 1.25 0 1 cbr 500 ------- 0 0.0 2.0 14 14
+ 1.25 1 2 cbr 500 ------- 0 0.0 2.0 14 14
- 1.25 1 2 cbr 500 ------- 0 0.0 2.0 14 14
+ 1.25 0 1 cbr 500 ------- 0 0.0 2.0 15 15
- 1.25 0 1 cbr 500 ------- 0 0.0 2.0 15 15
r 1.3 1 2 cbr 500 ------- 0 0.0 2.0 14 14
r 1.3 0 1 cbr 500 ------- 0 0.0 2.0 15 15
+ 1.3 1 2 cbr 500 ------- 0 0.0 2.0 15 15
- 1.3 1 2 cbr 500 ------- 0 0.0 2.0 15 15
+ 1.3 0 1 cbr 500 ------- 0 0.0 2.0 16 16
- 1.3 0 1 cbr 500 ------- 0 0.0 2.0 16 16
r 1.35 1 2 cbr 500 ------- 0 0.0 2.0 15 15
r 1.35 0 1 cbr 500 ------- 0 0.0 2.0 16 16
+ 1.35 1 2 cbr 500 ------- 0 0.0 2.0 16 16
- 1.35 1 2 cbr 500 ------- 0 0.0 2.0 16 16
+ 1.35 0 1 cbr 500 ------- 0 0.0 2.0 17 17
- 1.35 0 1 cbr 500 ------- 0 0.0 2.0 17 17
r 1.4 1 2 cbr 500 ------- 0 0.0 2.0 16 16
r 1.4 0 1 cbr 500 ------- 0 0.0 2.0 17 17
+ 1.4 1 2 cbr 500 ------- 0 0.0 2.0 17 17
- 1.4 1 2 cbr 500 ------- 0 0.0 2.0 17 17
+ 1.4 0 1 cbr 500 ------- 0 0.0 2.0 18 18
- 1.4 0 1 cbr 500 ------- 0 0.0 2.0 18 18
r 1.45 1 2 cbr 500 ------- 0 0.0 2.0 17 17
r 1.45 0 1 cbr 500 ------- 0 0.0 2.0 18 18
+ 1.45 1 2 cbr 500 ------- 0 0.0 2.0 18 18
- 1.45 1 2 cbr 500 ------- 0 0.0 2.0 18 18
+ 1.45 0 1 cbr 500 ------- 0 0.0 2.0 19 19
- 1.45 0 1 cbr 500 ------- 0 0.0 2.0 19 19
r 1.5 1 2 cbr 500 ------- 0 0.0 2.0 18 18
r 1.5 0 1 cbr 500 ------- 0 0.0 2.0 19 19
+ 1.5 1 2 cbr 500 ------- 0 0.0 2.0 19 19
- 1.5 1 2 cbr 500 ------- 0 0.0 2.0 19 19
+ 1.5 0 1 cbr 500 ------- 0 0.0 2.0 20 20
- 1.5 0 1 cbr 500 ------- 0 0.0 2.0 20 20
r 1.55 1 2 cbr 500 ------- 0 0.0 2.0 19 19
r 1.55 0 1 cbr 500 ------- 0 0.0 2.0 20 20
+ 1.55 1 2 cbr 500 ------- 0 0.0 2.0 20 20
- 1.55 1 2 cbr 500 ------- 0 0.0 2.0 20 20
+ 1.55 0 1 cbr 500 ------- 0 0.0 2.0 21 21
- 1.55 0 1 cbr 500 ------- 0 0.0 2.0 21 21
r 1.6 1 2 cbr 500 ------- 0 0.0 2.0 20 20
r 1.6 0 1 cbr 500 ------- 0 0.0 2.0 21 21
+ 1.6 1 2 cbr 500 ------- 0 0.0 2.0 21 21
- 1.6 1 2 cbr 500 ------- 0 0.0 2.0 21 21
+ 1.6 0 1 cbr 500 ------- 0 0.0 2.0 22 22
- 1.6 0 1 cbr 500 ------- 0 0.0 2.0 22 22
r 1.65 1 2 cbr 500 ------- 0 0.0 2.0 21 21
r 1.65 0 1 cbr 500 ------- 0 0.0 2.0 22 22
+ 1.65 1 2 cbr 500 ------- 0 0.0 2.0 22 22
- 1.65 1 2 cbr 500 ------- 0 0.0 2.0 22 22
+ 1.65 0 1 cbr 500 ------- 0 0.0 2.0 23 23
- 1.65 0 1 cbr 500 ------- 0 0.0 2.0 23 23
r 1.7 1 2 cbr 500 ------- 0 0.0 2.0 22 22
r 1.7 0 1 cbr 500 ------- 0 0.0 2.0 23 23
+ 1.7 1 2 cbr 500 ------- 0 0.0 2.0 23 23
- 1.7 1 2 cbr 500 ------- 0 0.0 2.0 23 23
+ 1.7 0 1 cbr 500 ------- 0 0.0 2.0 24 24
- 1.7 0 1 cbr 500 ------- 0 0.0 2.0 24 24
r 1.75 1 2 cbr 500 ------- 0 0.0 2.0 23 23
r 1.75 0 1 cbr 500 ------- 0 0.0 2.0 24 24
+ 1.75 1 2 cbr 500 ------- 0 0.0 2.0 24 24
- 1.75 1 2 cbr 500 ------- 0 0.0 2.0 24 24
+ 1.75 0 1 cbr 500 ------- 0 0.0 2.0 25 25
- 1.75 0 1 cbr 500 ------- 0 0.0 2.0 25 25
r 1.8 1 2 cbr 500 ------- 0 0.0 2.0 24 24
r 1.8 0 1 cbr 500 ------- 0 0.0 2.0 25 25
+ 1.8 1 2 cbr 500 ------- 0 0.0 2.0 25 25
- 1.8 1 2 cbr 500 ------- 0 0.0 2.0 25 25
+ 1.8 0 1 cbr 500 ------- 0 0.0 2.0 26 26
- 1.8 0 1 cbr 500 ------- 0 0.0 2.0 26 26
r 1.85 1 2 cbr 500 ------- 0 0.0 2.0 25 25
r 1.85 0 1 cbr 500 ------- 0 0.0 2.0 26 26
+ 1.85 1 2 cbr 500 ------- 0 0.0 2.0 26 26
- 1.85 1 2 cbr 500 ------- 0 0.0 2.0 26 26
+ 1.85 0 1 cbr 500 ------- 0 0.0 2.0 27 27
- 1.85 0 1 cbr 500 ------- 0 0.0 2.0 27 27
r 1.9 1 2 cbr 500 ------- 0 0.0 2.0 26 26
r 1.9 0 1 cbr 500 ------- 0 0.0 2.0 27 27
+ 1.9 1 2 cbr 500 ------- 0 0.0 2.0 27 27
- 1.9 1 2 cbr 500 ------- 0 0.0 2.0 27 27
+ 1.9 0 1 cbr 500 ------- 0 0.0 2.0 28 28
- 1.9 0 1 cbr 500 ------- 0 0.0 2.0 28 28
r 1.95 1 2 cbr 500 ------- 0 0.0 2.0 27 27
r 1.95 0 1 cbr 500 ------- 0 0.0 2.0 28 28
+ 1.95 1 2 cbr 500 ------- 0 0.0 2.0 28 28
- 1.95 1 2 cbr 500 ------- 0 0.0 2.0 28 28
+ 1.95 0 1 cbr 500 ------- 0 0.0 2.0 29 29
- 1.95 0 1 cbr 500 ------- 0 0.0 2.0 29 29
r 2 1 2 cbr 500 ------- 0 0.0 2.0 28 28
r 2 0 1 cbr 500 ------- 0 0.0 2.0 29 29
+ 2 1 2 cbr 500 ------- 0 0.0 2.0 29 29
- 2 1 2 cbr 500 ------- 0 0.0 2.0 29 29
+ 2 0 1 cbr 500 ------- 0 0.0 2.0 30 30
- 2 0 1 cbr 500 ------- 0 0.0 2.0 30 30
r 2.05 1 2 cbr 500 ------- 0 0.0 2.0 29 29
r 2.05 0 1 cbr 500 ------- 0 0.0 2.0 30 30
+ 2.05 1 2 cbr 500 ------- 0 0.0 2.0 30 30
- 2.05 1 2 cbr 500 ------- 0 0.0 2.0 30 30
+ 2.05 0 1 cbr 500 ------- 0 0.0 2.0 31 31
- 2.05 0 1 cbr 500 ------- 0 0.0 2.0 31 31
r 2.1 1 2 cbr 500 ------- 0 0.0 2.0 30 30
r 2.1 0 1 cbr 500 ------- 0 0.0 2.0 31 31
+ 2.1 1 2 cbr 500 ------- 0 0.0 2.0 31 31
- 2.1 1 2 cbr 500 ------- 0 0.0 2.0 31 31
+ 2.1 0 1 cbr 500 ------- 0 0.0 2.0 32 32
- 2.1 0 1 cbr 500 ------- 0 0.0 2.0 32 32
r 2.15 1 2 cbr 500 ------- 0 0.0 2.0 31 31
r 2.15 0 1 cbr 500 ------- 0 0.0 2.0 32 32
+ 2.15 1 2 cbr 500 ------- 0 0.0 2.0 32 32
- 2.15 1 2 cbr 500 ------- 0 0.0 2.0 32 32
+ 2.15 0 1 cbr 500 ------- 0 0.0 2.0 33 33
- 2.15 0 1 cbr 500 ------- 0 0.0 2.0 33 33
r 2.2 1 2 cbr 500 ------- 0 0.0 2.0 32 32
r 2.2 0 1 cbr 500 ------- 0 0.0 2.0 33 33
+ 2.2 1 2 cbr 500 ------- 0 0.0 2.0 33 33
- 2.2 1 2 cbr 500 ------- 0 0.0 2.0 33 33
+ 2.2 0 1 cbr 500 ------- 0 0.0 2.0 34 34
- 2.2 0 1 cbr 500 ------- 0 0.0 2.0 34 34
r 2.25 1 2 cbr 500 ------- 0 0.0 2.0 33 33
r 2.25 0 1 cbr 500 ------- 0 0.0 2.0 34 34
+ 2.25 1 2 cbr 500 ------- 0 0.0 2.0 34 34
- 2.25 1 2 cbr 500 ------- 0 0.0 2.0 34 34
+ 2.25 0 1 cbr 500 ------- 0 0.0 2.0 35 35
- 2.25 0 1 cbr 500 ------- 0 0.0 2.0 35 35
r 2.3 1 2 cbr 500 ------- 0 0.0 2.0 34 34
r 2.3 0 1 cbr 500 ------- 0 0.0 2.0 35 35
+ 2.3 1 2 cbr 500 ------- 0 0.0 2.0 35 35
- 2.3 1 2 cbr 500 ------- 0 0.0 2.0 35 35
+ 2.3 0 1 cbr 500 ------- 0 0.0 2.0 36 36
- 2.3 0 1 cbr 500 ------- 0 0.0 2.0 36 36
r 2.35 1 2 cbr 500 ------- 0 0.0 2.0 35 35
r 2.35 0 1 cbr 500 ------- 0 0.0 2.0 36 36
+ 2.35 1 2 cbr 500 ------- 0 0.0 2.0 36 36
- 2.35 1 2 cbr 500 ------- 0 0.0 2.0 36 36
+ 2.35 0 1 cbr 500 ------- 0 0.0 2.0 37 37
- 2.35 0 1 cbr 500 ------- 0 0.0 2.0 37 37
r 2.4 1 2 cbr 500 ------- 0 0.0 2.0 36 36
r 2.4 0 1 cbr 500 ------- 0 0.0 2.0 37 37
+ 2.4 1 2 cbr 500 ------- 0 0.0 2.0 37 37
- 2.4 1 2 cbr 500 ------- 0 0.0 2.0 37 37
+ 2.4 0 1 cbr 500 ------- 0 0.0 2.0 38 38
- 2.4 0 1 cbr 500 ------- 0 0.0 2.0 38 38
r 2.45 1 2 cbr 500 ------- 0 0.0 2.0 37 37
r 2.45 0 1 cbr 500 ------- 0 0.0 2.0 38 38
+ 2.45 1 2 cbr 500 ------- 0 0.0 2.0 38 38
- 2.45 1 2 cbr 500 ------- 0 0.0 2.0 38 38
+ 2.45 0 1 cbr 500 ------- 0 0.0 2.0 39 39
- 2.45 0 1 cbr 500 ------- 0 0.0 2.0 39 39
r 2.5 1 2 cbr 500 ------- 0 0.0 2.0 38 38
r 2.5 0 1 cbr 500 ------- 0 0.0 2.0 39 39
+ 2.5 1 2 cbr 500 ------- 0 0.0 2.0 39 39
- 2.5 1 2 cbr 500 ------- 0 0.0 2.0 39 39
+ 2.5 0 1 cbr 500 ------- 0 0.0 2.0 40 40
- 2.5 0 1 cbr 500 ------- 0 0.0 2.0 40 40
r 2.55 1 2 cbr 500 ------- 0 0.0 2.0 39 39
r 2.55 0 1 cbr 500 ------- 0 0.0 2.0 40 40
+ 2.55 1 2 cbr 500 ------- 0 0.0 2.0 40 40
- 2.55 1 2 cbr 500 ------- 0 0.0 2.0 40 40
+ 2.55 0 1 cbr 500 ------- 0 0.0 2.0 41 41
- 2.55 0 1 cbr 500 ------- 0 0.0 2.0 41 41
r 2.6 1 2 cbr 500 ------- 0 0.0 2.0 40 40
r 2.6 0 1 cbr 500 ------- 0 0.0 2.0 41 41
+ 2.6 1 2 cbr 500 ------- 0 0.0 2.0 41 41
- 2.6 1 2 cbr 500 ------- 0 0.0 2.0 41 41
+ 2.6 0 1 cbr 500 ------- 0 0.0 2.0 42 42
- 2.6 0 1 cbr 500 ------- 0 0.0 2.0 42 42
r 2.65 1 2 cbr 500 ------- 0 0.0 2.0 41 41
r 2.65 0 1 cbr 500 ------- 0 0.0 2.0 42 42
+ 2.65 1 2 cbr 500 ------- 0 0.0 2.0 42 42
- 2.65 1 2 cbr 500 ------- 0 0.0 2.0 42 42
+ 2.65 0 1 cbr 500 ------- 0 0.0 2.0 43 43
- 2.65 0 1 cbr 500 ------- 0 0.0 2.0 43 43
r 2.7 1 2 cbr 500 ------- 0 0.0 2.0 42 42
r 2.7 0 1 cbr 500 ------- 0 0.0 2.0 43 43
+ 2.7 1 2 cbr 500 ------- 0 0.0 2.0 43 43
- 2.7 1 2 cbr 500 ------- 0 0.0 2.0 43 43
+ 2.7 0 1 cbr 500 ------- 0 0.0 2.0 44 44
- 2.7 0 1 cbr 500 ------- 0 0.0 2.0 44 44
r 2.75 1 2 cbr 500 ------- 0 0.0 2.0 43 43
r 2.75 0 1 cbr 500 ------- 0 0.0 2.0 44 44
+ 2.75 1 2 cbr 500 ------- 0 0.0 2.0 44 44
- 2.75 1 2 cbr 500 ------- 0 0.0 2.0 44 44
+ 2.75 0 1 cbr 500 ------- 0 0.0 2.0 45 45
- 2.75 0 1 cbr 500 ------- 0 0.0 2.0 45 45
r 2.8 1 2 cbr 500 ------- 0 0.0 2.0 44 44
r 2.8 0 1 cbr 500 ------- 0 0.0 2.0 45 45
+ 2.8 1 2 cbr 500 ------- 0 0.0 2.0 45 45
- 2.8 1 2 cbr 500 ------- 0 0.0 2.0 45 45
+ 2.8 0 1 cbr 500 ------- 0 0.0 2.0 46 46
- 2.8 0 1 cbr 500 ------- 0 0.0 2.0 46 46
r 2.85 1 2 cbr 500 ------- 0 0.0 2.0 45 45
r 2.85 0 1 cbr 500 ------- 0 0.0 2.0 46 46
+ 2.85 1 2 cbr 500 ------- 0 0.0 2.0 46 46
- 2.85 1 2 cbr 500 ------- 0 0.0 2.0 46 46
+ 2.85 0 1 cbr 500 ------- 0 0.0 2.0 47 47
- 2.85 0 1 cbr 500 ------- 0 0.0 2.0 47 47
r 2.9 1 2 cbr 500 ------- 0 0.0 2.0 46 46
r 2.9 0 1 cbr 500 ------- 0 0.0 2.0 47 47
+ 2.9 1 2 cbr 500 ------- 0 0.0 2.0 47 47
- 2.9 1 2 cbr 500 ------- 0 0.0 2.0 47 47
+ 2.9 0 1 cbr 500 ------- 0 0.0 2.0 48 48
- 2.9 0 1 cbr 500 ------- 0 0.0 2.0 48 48
r 2.95 1 2 cbr 500 ------- 0 0.0 2.0 47 47
r 2.95 0 1 cbr 500 ------- 0 0.0 2.0 48 48
+ 2.95 1 2 cbr 500 ------- 0 0.0 2.0 48 48
- 2.95 1 2 cbr 500 ------- 0 0.0 2.0 48 48
+ 2.95 0 1 cbr 500 ------- 0 0.0 2.0 49 49
- 2.95 0 1 cbr 500 ------- 0 0.0 2.0 49 49
r 3 1 2 cbr 500 ------- 0 0.0 2.0 48 48
r 3 0 1 cbr 500 ------- 0 0.0 2.0 49 49
+ 3 1 2 cbr 500 ------- 0 0.0 2.0 49 49
- 3 1 2 cbr 500 ------- 0 0.0 2.0 49 49
+ 3 0 1 cbr 500 ------- 0 0.0 2.0 50 50
- 3 0 1 cbr 500 ------- 0 0.0 2.0 50 50
r 3.05 1 2 cbr 500 ------- 0 0.0 2.0 49 49
r 3.05 0 1 cbr 500 ------- 0 0.0 2.0 50 50
+ 3.05 1 2 cbr 500 ------- 0 0.0 2.0 50 50
- 3.05 1 2 cbr 500 ------- 0 0.0 2.0 50 50
+ 3.05 0 1 cbr 500 ------- 0 0.0 2.0 51 51
- 3.05 0 1 cbr 500 ------- 0 0.0 2.0 51 51
r 3.1 1 2 cbr 500 ------- 0 0.0 2.0 50 50
r 3.1 0 1 cbr 500 ------- 0 0.0 2.0 51 51
+ 3.1 1 2 cbr 500 ------- 0 0.0 2.0 51 51
- 3.1 1 2 cbr 500 ------- 0 0.0 2.0 51 51
+ 3.1 0 1 cbr 500 ------- 0 0.0 2.0 52 52
- 3.1 0 1 cbr 500 ------- 0 0.0 2.0 52 52
r 3.15 1 2 cbr 500 ------- 0 0.0 2.0 51 51
r 3.15 0 1 cbr 500 ------- 0 0.0 2.0 52 52
+ 3.15 1 2 cbr 500 ------- 0 0.0 2.0 52 52
- 3.15 1 2 cbr 500 ------- 0 0.0 2.0 52 52
+ 3.15 0 1 cbr 500 ------- 0 0.0 2.0 53 53
- 3.15 0 1 cbr 500 ------- 0 0.0 2.0 53 53
r 3.2 1 2 cbr 500 ------- 0 0.0 2.0 52 52
r 3.2 0 1 cbr 500 ------- 0 0.0 2.0 53 53
+ 3.2 1 2 cbr 500 ------- 0 0.0 2.0 53 53
- 3.2 1 2 cbr 500 ------- 0 0.0 2.0 53 53
+ 3.2 0 1 cbr 500 ------- 0 0.0 2.0 54 54
- 3.2 0 1 cbr 500 ------- 0 0.0 2.0 54 54
r 3.25 1 2 cbr 500 ------- 0 0.0 2.0 53 53
r 3.25 0 1 cbr 500 ------- 0 0.0 2.0 54 54
+ 3.25 1 2 cbr 500 ------- 0 0.0 2.0 54 54
- 3.25 1 2 cbr 500 ------- 0 0.0 2.0 54 54
+ 3.25 0 1 cbr 500 ------- 0 0.0 2.0 55 55
- 3.25 0 1 cbr 500 ------- 0 0.0 2.0 55 55
r 3.3 1 2 cbr 500 ------- 0 0.0 2.0 54 54
r 3.3 0 1 cbr 500 ------- 0 0.0 2.0 55 55
+ 3.3 1 2 cbr 500 ------- 0 0.0 2.0 55 55
- 3.3 1 2 cbr 500 ------- 0 0.0 2.0 55 55
+ 3.3 0 1 cbr 500 ------- 0 0.0 2.0 56 56
- 3.3 0 1 cbr 500 ------- 0 0.0 2.0 56 56
r 3.35 1 2 cbr 500 ------- 0 0.0 2.0 55 55
r 3.35 0 1 cbr 500 ------- 0 0.0 2.0 56 56
+ 3.35 1 2 cbr 500 ------- 0 0.0 2.0 56 56
- 3.35 1 2 cbr 500 ------- 0 0.0 2.0 56 56
+ 3.35 0 1 cbr 500 ------- 0 0.0 2.0 57 57
- 3.35 0 1 cbr 500 ------- 0 0.0 2.0 57 57
r 3.4 1 2 cbr 500 ------- 0 0.0 2.0 56 56
r 3.4 0 1 cbr 500 ------- 0 0.0 2.0 57 57
+ 3.4 1 2 cbr 500 ------- 0 0.0 2.0 57 57
- 3.4 1 2 cbr 500 ------- 0 0.0 2.0 57 57
+ 3.4 0 1 cbr 500 ------- 0 0.0 2.0 58 58
- 3.4 0 1 cbr 500 ------- 0 0.0 2.0 58 58
r 3.45 1 2 cbr 500 ------- 0 0.0 2.0 57 57
r 3.45 0 1 cbr 500 ------- 0 0.0 2.0 58 58
+ 3.45 1 2 cbr 500 ------- 0 0.0 2.0 58 58
- 3.45 1 2 cbr 500 ------- 0 0.0 2.0 58 58
+ 3.45 0 1 cbr 500 ------- 0 0.0 2.0 59 59
- 3.45 0 1 cbr 500 ------- 0 0.0 2.0 59 59
r 3.5 1 2 cbr 500 ------- 0 0.0 2.0 58 58
r 3.5 0 1 cbr 500 ------- 0 0.0 2.0 59 59
+ 3.5 1 2 cbr 500 ------- 0 0.0 2.0 59 59
- 3.5 1 2 cbr 500 ------- 0 0.0 2.0 59 59
+ 3.5 0 1 cbr 500 ------- 0 0.0 2.0 60 60
- 3.5 0 1 cbr 500 ------- 0 0.0 2.0 60 60
r 3.55 1 2 cbr 500 ------- 0 0.0 2.0 59 59
r 3.55 0 1 cbr 500 ------- 0 0.0 2.0 60 60
+ 3.55 1 2 cbr 500 ------- 0 0.0 2.0 60 60
- 3.55 1 2 cbr 500 ------- 0 0.0 2.0 60 60
+ 3.55 0 1 cbr 500 ------- 0 0.0 2.0 61 61
- 3.55 0 1 cbr 500 ------- 0 0.0 2.0 61 61
r 3.6 1 2 cbr 500 ------- 0 0.0 2.0 60 60
r 3.6 0 1 cbr 500 ------- 0 0.0 2.0 61 61
+ 3.6 1 2 cbr 500 ------- 0 0.0 2.0 61 61
- 3.6 1 2 cbr 500 ------- 0 0.0 2.0 61 61
+ 3.6 0 1 cbr 500 ------- 0 0.0 2.0 62 62
- 3.6 0 1 cbr 500 ------- 0 0.0 2.0 62 62
r 3.65 1 2 cbr 500 ------- 0 0.0 2.0 61 61
r 3.65 0 1 cbr 500 ------- 0 0.0 2.0 62 62
+ 3.65 1 2 cbr 500 ------- 0 0.0 2.0 62 62
- 3.65 1 2 cbr 500 ------- 0 0.0 2.0 62 62
+ 3.65 0 1 cbr 500 ------- 0 0.0 2.0 63 63
- 3.65 0 1 cbr 500 ------- 0 0.0 2.0 63 63
r 3.7 1 2 cbr 500 ------- 0 0.0 2.0 62 62
r 3.7 0 1 cbr 500 ------- 0 0.0 2.0 63 63
+ 3.7 1 2 cbr 500 ------- 0 0.0 2.0 63 63
- 3.7 1 2 cbr 500 ------- 0 0.0 2.0 63 63
+ 3.7 0 1 cbr 500 ------- 0 0.0 2.0 64 64
- 3.7 0 1 cbr 500 ------- 0 0.0 2.0 64 64
r 3.75 1 2 cbr 500 ------- 0 0.0 2.0 63 63
r 3.75 0 1 cbr 500 ------- 0 0.0 2.0 64 64
+ 3.75 1 2 cbr 500 ------- 0 0.0 2.0 64 64
- 3.75 1 2 cbr 500 ------- 0 0.0 2.0 64 64
+ 3.75 0 1 cbr 500 ------- 0 0.0 2.0 65 65
- 3.75 0 1 cbr 500 ------- 0 0.0 2.0 65 65
r 3.8 1 2 cbr 500 ------- 0 0.0 2.0 64 64
r 3.8 0 1 cbr 500 ------- 0 0.0 2.0 65 65
+ 3.8 1 2 cbr 500 ------- 0 0.0 2.0 65 65
- 3.8 1 2 cbr 500 ------- 0 0.0 2.0 65 65
+ 3.8 0 1 cbr 500 ------- 0 0.0 2.0 66 66
- 3.8 0 1 cbr 500 ------- 0 0.0 2.0 66 66
r 3.85 1 2 cbr 500 ------- 0 0.0 2.0 65 65
r 3.85 0 1 cbr 500 ------- 0 0.0 2.0 66 66
+ 3.85 1 2 cbr 500 ------- 0 0.0 2.0 66 66
- 3.85 1 2 cbr 500 ------- 0 0.0 2.0 66 66
+ 3.85 0 1 cbr 500 ------- 0 0.0 2.0 67 67
- 3.85 0 1 cbr 500 ------- 0 0.0 2.0 67 67
r 3.9 1 2 cbr 500 ------- 0 0.0 2.0 66 66
r 3.9 0 1 cbr 500 ------- 0 0.0 2.0 67 67
+ 3.9 1 2 cbr 500 ------- 0 0.0 2.0 67 67
- 3.9 1 2 cbr 500 ------- 0 0.0 2.0 67 67
+ 3.9 0 1 cbr 500 ------- 0 0.0 2.0 68 68
- 3.9 0 1 cbr 500 ------- 0 0.0 2.0 68 68
r 3.95 1 2 cbr 500 ------- 0 0.0 2.0 67 67
r 3.95 0 1 cbr 500 ------- 0 0.0 2.0 68 68
+ 3.95 1 2 cbr 500 ------- 0 0.0 2.0 68 68
- 3.95 1 2 cbr 500 ------- 0 0.0 2.0 68 68
+ 3.95 0 1 cbr 500 ------- 0 0.0 2.0 69 69
- 3.95 0 1 cbr 500 ------- 0 0.0 2.0 69 69
r 4 1 2 cbr 500 ------- 0 0.0 2.0 68 68
r 4 0 1 cbr 500 ------- 0 0.0 2.0 69 69
+ 4 1 2 cbr 500 ------- 0 0.0 2.0 69 69
- 4 1 2 cbr 500 ------- 0 0.0 2.0 69 69
+ 4 0 1 cbr 500 ------- 0 0.0 2.0 70 70
- 4 0 1 cbr 500 ------- 0 0.0 2.0 70 70
r 4.05 1 2 cbr 500 ------- 0 0.0 2.0 69 69
r 4.05 0 1 cbr 500 ------- 0 0.0 2.0 70 70
+ 4.05 1 2 cbr 500 ------- 0 0.0 2.0 70 70
- 4.05 1 2 cbr 500 ------- 0 0.0 2.0 70 70
+ 4.05 0 1 cbr 500 ------- 0 0.0 2.0 71 71
- 4.05 0 1 cbr 500 ------- 0 0.0 2.0 71 71
r 4.1 1 2 cbr 500 ------- 0 0.0 2.0 70 70
r 4.1 0 1 cbr 500 ------- 0 0.0 2.0 71 71
+ 4.1 1 2 cbr 500 ------- 0 0.0 2.0 71 71
- 4.1 1 2 cbr 500 ------- 0 0.0 2.0 71 71
+ 4.1 0 1 cbr 500 ------- 0 0.0 2.0 72 72
- 4.1 0 1 cbr 500 ------- 0 0.0 2.0 72 72
r 4.15 1 2 cbr 500 ------- 0 0.0 2.0 71 71
r 4.15 0 1 cbr 500 ------- 0 0.0 2.0 72 72
+ 4.15 1 2 cbr 500 ------- 0 0.0 2.0 72 72
- 4.15 1 2 cbr 500 ------- 0 0.0 2.0 72 72
+ 4.15 0 1 cbr 500 ------- 0 0.0 2.0 73 73
- 4.15 0 1 cbr 500 ------- 0 0.0 2.0 73 73
r 4.2 1 2 cbr 500 ------- 0 0.0 2.0 72 72
r 4.2 0 1 cbr 500 ------- 0 0.0 2.0 73 73
+ 4.2 1 2 cbr 500 ------- 0 0.0 2.0 73 73
- 4.2 1 2 cbr 500 ------- 0 0.0 2.0 73 73
+ 4.2 0 1 cbr 500 ------- 0 0.0 2.0 74 74
- 4.2 0 1 cbr 500 ------- 0 0.0 2.0 74 74
r 4.25 1 2 cbr 500 ------- 0 0.0 2.0 73 73
r 4.25 0 1 cbr 500 ------- 0 0.0 2.0 74 74
+ 4.25 1 2 cbr 500 ------- 0 0.0 2.0 74 74
- 4.25 1 2 cbr 500 ------- 0 0.0 2.0 74 74
+ 4.25 0 1 cbr 500 ------- 0 0.0 2.0 75 75
- 4.25 0 1 cbr 500 ------- 0 0.0 2.0 75 75
r 4.3 1 2 cbr 500 ------- 0 0.0 2.0 74 74
r 4.3 0 1 cbr 500 ------- 0 0.0 2.0 75 75
+ 4.3 1 2 cbr 500 ------- 0 0.0 2.0 75 75
- 4.3 1 2 cbr 500 ------- 0 0.0 2.0 75 75
+ 4.3 0 1 cbr 500 ------- 0 0.0 2.0 76 76
- 4.3 0 1 cbr 500 ------- 0 0.0 2.0 76 76
r 4.35 1 2 cbr 500 ------- 0 0.0 2.0 75 75
r 4.35 0 1 cbr 500 ------- 0 0.0 2.0 76 76
+ 4.35 1 2 cbr 500 ------- 0 0.0 2.0 76 76
- 4.35 1 2 cbr 500 ------- 0 0.0 2.0 76 76
+ 4.35 0 1 cbr 500 ------- 0 0.0 2.0 77 77
- 4.35 0 1 cbr 500 ------- 0 0.0 2.0 77 77
r 4.4 1 2 cbr 500 ------- 0 0.0 2.0 76 76
r 4.4 0 1 cbr 500 ------- 0 0.0 2.0 77 77
+ 4.4 1 2 cbr 500 ------- 0 0.0 2.0 77 77
- 4.4 1 2 cbr 500 ------- 0 0.0 2.0 77 77
+ 4.4 0 1 cbr 500 ------- 0 0.0 2.0 78 78
- 4.4 0 1 cbr 500 ------- 0 0.0 2.0 78 78
r 4.45 1 2 cbr 500 ------- 0 0.0 2.0 77 77
r 4.45 0 1 cbr 500 ------- 0 0.0 2.0 78 78
+ 4.45 1 2 cbr 500 ------- 0 0.0 2.0 78 78
- 4.45 1 2 cbr 500 ------- 0 0.0 2.0 78 78
+ 4.45 0 1 cbr 500 ------- 0 0.0 2.0 79 79
- 4.45 0 1 cbr 500 ------- 0 0.0 2.0 79 79
r 4.5 1 2 cbr 500 ------- 0 0.0 2.0 78 78
r 4.5 0 1 cbr 500 ------- 0 0.0 2.0 79 79
+ 4.5 1 2 cbr 500 ------- 0 0.0 2.0 79 79
- 4.5 1 2 cbr 500 ------- 0 0.0 2.0 79 79
+ 4.5 0 1 cbr 500 ------- 0 0.0 2.0 80 80
- 4.5 0 1 cbr 500 ------- 0 0.0 2.0 80 80
r 4.55 1 2 cbr 500 ------- 0 0.0 2.0 79 79
r 4.55 0 1 cbr 500 ------- 0 0.0 2.0 80 80
+ 4.55 1 2 cbr 500 ------- 0 0.0 2.0 80 80
- 4.55 1 2 cbr 500 ------- 0 0.0 2.0 80 80
+ 4.55 0 1 cbr 500 ------- 0 0.0 2.0 81 81
- 4.55 0 1 cbr 500 ------- 0 0.0 2.0 81 81
r 4.6 1 2 cbr 500 ------- 0 0.0 2.0 80 80
r 4.6 0 1 cbr 500 ------- 0 0.0 2.0 81 81
+ 4.6 1 2 cbr 500 ------- 0 0.0 2.0 81 81
- 4.6 1 2 cbr 500 ------- 0 0.0 2.0 81 81
+ 4.6 0 1 cbr 500 ------- 0 0.0 2.0 82 82
- 4.6 0 1 cbr 500 ------- 0 0.0 2.0 82 82
r 4.65 1 2 cbr 500 ------- 0 0.0 2.0 81 81
r 4.65 0 1 cbr 500 ------- 0 0.0 2.0 82 82
+ 4.65 1 2 cbr 500 ------- 0 0.0 2.0 82 82
- 4.65 1 2 cbr 500 ------- 0 0.0 2.0 82 82
+ 4.65 0 1 cbr 500 ------- 0 0.0 2.0 83 83
- 4.65 0 1 cbr 500 ------- 0 0.0 2.0 83 83
r 4.7 1 2 cbr 500 ------- 0 0.0 2.0 82 82
r 4.7 0 1 cbr 500 ------- 0 0.0 2.0 83 83
+ 4.7 1 2 cbr 500 ------- 0 0.0 2.0 83 83
- 4.7 1 2 cbr 500 ------- 0 0.0 2.0 83 83
+ 4.7 0 1 cbr 500 ------- 0 0.0 2.0 84 84
- 4.7 0 1 cbr 500 ------- 0 0.0 2.0 84 84
r 4.75 1 2 cbr 500 ------- 0 0.0 2.0 83 83
r 4.75 0 1 cbr 500 ------- 0 0.0 2.0 84 84
+ 4.75 1 2 cbr 500 ------- 0 0.0 2.0 84 84
- 4.75 1 2 cbr 500 ------- 0 0.0 2.0 84 84
+ 4.75 0 1 cbr 500 ------- 0 0.0 2.0 85 85
- 4.75 0 1 cbr 500 ------- 0 0.0 2.0 85 85
r 4.8 1 2 cbr 500 ------- 0 0.0 2.0 84 84
r 4.8 0 1 cbr 500 ------- 0 0.0 2.0 85 85
+ 4.8 1 2 cbr 500 ------- 0 0.0 2.0 85 85
- 4.8 1 2 cbr 500 ------- 0 0.0 2.0 85 85
+ 4.8 0 1 cbr 500 ------- 0 0.0 2.0 86 86
- 4.8 0 1 cbr 500 ------- 0 0.0 2.0 86 86
r 4.85 1 2 cbr 500 ------- 0 0.0 2.0 85 85
r 4.85 0 1 cbr 500 ------- 0 0.0 2.0 86 86
+ 4.85 1 2 cbr 500 ------- 0 0.0 2.0 86 86
- 4.85 1 2 cbr 500 ------- 0 0.0 2.0 86 86
+ 4.85 0 1 cbr 500 ------- 0 0.0 2.0 87 87
- 4.85 0 1 cbr 500 ------- 0 0.0 2.0 87 87
r 4.9 1 2 cbr 500 ------- 0 0.0 2.0 86 86
r 4.9 0 1 cbr 500 ------- 0 0.0 2.0 87 87
+ 4.9 1 2 cbr 500 ------- 0 0.0 2.0 87 87
- 4.9 1 2 cbr 500 ------- 0 0.0 2.0 87 87
+ 4.9 0 1 cbr 500 ------- 0 0.0 2.0 88 88
- 4.9 0 1 cbr 500 ------- 0 0.0 2.0 88 88
r 4.95 1 2 cbr 500 ------- 0 0.0 2.0 87 87
r 4.95 0 1 cbr 500 ------- 0 0.0 2.0 88 88
+ 4.95 1 2 cbr 500 ------- 0 0.0 2.0 88 88
- 4.95 1 2 cbr 500 ------- 0 0.0 2.0 88 88
+ 4.95 0 1 cbr 500 ------- 0 0.0 2.0 89 89
- 4.95 0 1 cbr 500 ------- 0 0.0 2.0 89 89
r 5 1 2 cbr 500 ------- 0 0.0 2.0 88 88
r 5 0 1 cbr 500 ------- 0 0.0 2.0 89 89
+ 5 1 2 cbr 500 ------- 0 0.0 2.0 89 89
- 5 1 2 cbr 500 ------- 0 0.0 2.0 89 89
+ 5 0 1 cbr 500 ------- 0 0.0 2.0 90 90
- 5 0 1 cbr 500 ------- 0 0.0 2.0 90 90
r 5.05 1 2 cbr 500 ------- 0 0.0 2.0 89 89
r 5.05 0 1 cbr 500 ------- 0 0.0 2.0 90 90
+ 5.05 1 2 cbr 500 ------- 0 0.0 2.0 90 90
- 5.05 1 2 cbr 500 ------- 0 0.0 2.0 90 90
+ 5.05 0 1 cbr 500 ------- 0 0.0 2.0 91 91
- 5.05 0 1 cbr 500 ------- 0 0.0 2.0 91 91
r 5.1 1 2 cbr 500 ------- 0 0.0 2.0 90 90
r 5.1 0 1 cbr 500 ------- 0 0.0 2.0 91 91
+ 5.1 1 2 cbr 500 ------- 0 0.0 2.0 91 91
- 5.1 1 2 cbr 500 ------- 0 0.0 2.0 91 91
+ 5.1 0 1 cbr 500 ------- 0 0.0 2.0 92 92
- 5.1 0 1 cbr 500 ------- 0 0.0 2.0 92 92
r 5.15 1 2 cbr 500 ------- 0 0.0 2.0 91 91
r 5.15 0 1 cbr 500 ------- 0 0.0 2.0 92 92
+ 5.15 1 2 cbr 500 ------- 0 0.0 2.0 92 92
- 5.15 1 2 cbr 500 ------- 0 0.0 2.0 92 92
+ 5.15 0 1 cbr 500 ------- 0 0.0 2.0 93 93
- 5.15 0 1 cbr 500 ------- 0 0.0 2.0 93 93
r 5.2 1 2 cbr 500 ------- 0 0.0 2.0 92 92
r 5.2 0 1 cbr 500 ------- 0 0.0 2.0 93 93
+ 5.2 1 2 cbr 500 ------- 0 0.0 2.0 93 93
- 5.2 1 2 cbr 500 ------- 0 0.0 2.0 93 93
+ 5.2 0 1 cbr 500 ------- 0 0.0 2.0 94 94
- 5.2 0 1 cbr 500 ------- 0 0.0 2.0 94 94
r 5.25 1 2 cbr 500 ------- 0 0.0 2.0 93 93
r 5.25 0 1 cbr 500 ------- 0 0.0 2.0 94 94
+ 5.25 1 2 cbr 500 ------- 0 0.0 2.0 94 94
- 5.25 1 2 cbr 500 ------- 0 0.0 2.0 94 94
+ 5.25 0 1 cbr 500 ------- 0 0.0 2.0 95 95
- 5.25 0 1 cbr 500 ------- 0 0.0 2.0 95 95
r 5.3 1 2 cbr 500 ------- 0 0.0 2.0 94 94
r 5.3 0 1 cbr 500 ------- 0 0.0 2.0 95 95
+ 5.3 1 2 cbr 500 ------- 0 0.0 2.0 95 95
- 5.3 1 2 cbr 500 ------- 0 0.0 2.0 95 95
+ 5.3 0 1 cbr 500 ------- 0 0.0 2.0 96 96
- 5.3 0 1 cbr 500 ------- 0 0.0 2.0 96 96
r 5.35 1 2 cbr 500 ------- 0 0.0 2.0 95 95
r 5.35 0 1 cbr 500 ------- 0 0.0 2.0 96 96
+ 5.35 1 2 cbr 500 ------- 0 0.0 2.0 96 96
- 5.35 1 2 cbr 500 ------- 0 0.0 2.0 96 96
+ 5.35 0 1 cbr 500 ------- 0 0.0 2.0 97 97
- 5.35 0 1 cbr 500 ------- 0 0.0 2.0 97 97
r 5.4 1 2 cbr 500 ------- 0 0.0 2.0 96 96
r 5.4 0 1 cbr 500 ------- 0 0.0 2.0 97 97
+ 5.4 1 2 cbr 500 ------- 0 0.0 2.0 97 97
- 5.4 1 2 cbr 500 ------- 0 0.0 2.0 97 97
+ 5.4 0 1 cbr 500 ------- 0 0.0 2.0 98 98
- 5.4 0 1 cbr 500 ------- 0 0.0 2.0 98 98
r 5.45 1 2 cbr 500 ------- 0 0.0 2.0 97 97
r 5.45 0 1 cbr 500 ------- 0 0.0 2.0 98 98
+ 5.45 1 2 cbr 500 ------- 0 0.0 2.0 98 98
- 5.45 1 2 cbr 500 ------- 0 0.0 2.0 98 98
+ 5.45 0 1 cbr 500 ------- 0 0.0 2.0 99 99
- 5.45 0 1 cbr 500 ------- 0 0.0 2.0 99 99
r 5.5 1 2 cbr 500 ------- 0 0.0 2.0 98 98
r 5.5 0 1 cbr 500 ------- 0 0.0 2.0 99 99
+ 5.5 1 2 cbr 500 ------- 0 0.0 2.0 99 99
- 5.5 1 2 cbr 500 ------- 0 0.0 2.0 99 99
+ 5.5 0 1 cbr 500 ------- 0 0.0 2.0 100 100
- 5.5 0 1 cbr 500 ------- 0 0.0 2.0 100 100
r 5.55 1 2 cbr 500 ------- 0 0.0 2.0 99 99
r 5.55 0 1 cbr 500 ------- 0 0.0 2.0 100 100
+ 5.55 1 2 cbr 500 ------- 0 0.0 2.0 100 100
- 5.55 1 2 cbr 500 ------- 0 0.0 2.0 100 100
+ 5.55 0 1 cbr 500 ------- 0 0.0 2.0 101 101
- 5.55 0 1 cbr 500 ------- 0 0.0 2.0 101 101
r 5.6 1 2 cbr 500 ------- 0 0.0 2.0 100 100
r 5.6 0 1 cbr 500 ------- 0 0.0 2.0 101 101
+ 5.6 1 2 cbr 500 ------- 0 0.0 2.0 101 101
- 5.6 1 2 cbr 500 ------- 0 0.0 2.0 101 101
+ 5.6 0 1 cbr 500 ------- 0 0.0 2.0 102 102
- 5.6 0 1 cbr 500 ------- 0 0.0 2.0 102 102
r 5.65 1 2 cbr 500 ------- 0 0.0 2.0 101 101
r 5.65 0 1 cbr 500 ------- 0 0.0 2.0 102 102
+ 5.65 1 2 cbr 500 ------- 0 0.0 2.0 102 102
- 5.65 1 2 cbr 500 ------- 0 0.0 2.0 102 102
+ 5.65 0 1 cbr 500 ------- 0 0.0 2.0 103 103
- 5.65 0 1 cbr 500 ------- 0 0.0 2.0 103 103
r 5.7 1 2 cbr 500 ------- 0 0.0 2.0 102 102
r 5.7 0 1 cbr 500 ------- 0 0.0 2.0 103 103
+ 5.7 1 2 cbr 500 ------- 0 0.0 2.0 103 103
- 5.7 1 2 cbr 500 ------- 0 0.0 2.0 103 103
+ 5.7 0 1 cbr 500 ------- 0 0.0 2.0 104 104
- 5.7 0 1 cbr 500 ------- 0 0.0 2.0 104 104
r 5.75 1 2 cbr 500 ------- 0 0.0 2.0 103 103
r 5.75 0 1 cbr 500 ------- 0 0.0 2.0 104 104
+ 5.75 1 2 cbr 500 ------- 0 0.0 2.0 104 104
- 5.75 1 2 cbr 500 ------- 0 0.0 2.0 104 104
+ 5.75 0 1 cbr 500 ------- 0 0.0 2.0 105 105
- 5.75 0 1 cbr 500 ------- 0 0.0 2.0 105 105
r 5.8 1 2 cbr 500 ------- 0 0.0 2.0 104 104
r 5.8 0 1 cbr 500 ------- 0 0.0 2.0 105 105
+ 5.8 1 2 cbr 500 ------- 0 0.0 2.0 105 105
- 5.8 1 2 cbr 500 ------- 0 0.0 2.0 105 105
+ 5.8 0 1 cbr 500 ------- 0 0.0 2.0 106 106
- 5.8 0 1 cbr 500 ------- 0 0.0 2.0 106 106
r 5.85 1 2 cbr 500 ------- 0 0.0 2.0 105 105
r 5.85 0 1 cbr 500 ------- 0 0.0 2.0 106 106
+ 5.85 1 2 cbr 500 ------- 0 0.0 2.0 106 106
- 5.85 1 2 cbr 500 ------- 0 0.0 2.0 106 106
+ 5.85 0 1 cbr 500 ------- 0 0.0 2.0 107 107
- 5.85 0 1 cbr 500 ------- 0 0.0 2.0 107 107
r 5.9 1 2 cbr 500 ------- 0 0.0 2.0 106 106
r 5.9 0 1 cbr 500 ------- 0 0.0 2.0 107 107
+ 5.9 1 2 cbr 500 ------- 0 0.0 2.0 107 107
- 5.9 1 2 cbr 500 ------- 0 0.0 2.0 107 107
+ 5.9 0 1 cbr 500 ------- 0 0.0 2.0 108 108
- 5.9 0 1 cbr 500 ------- 0 0.0 2.0 108 108
r 5.95 1 2 cbr 500 ------- 0 0.0 2.0 107 107
r 5.95 0 1 cbr 500 ------- 0 0.0 2.0 108 108
+ 5.95 1 2 cbr 500 ------- 0 0.0 2.0 108 108
- 5.95 1 2 cbr 500 ------- 0 0.0 2.0 108 108
+ 5.95 0 1 cbr 500 ------- 0 0.0 2.0 109 109
- 5.95 0 1 cbr 500 ------- 0 0.0 2.0 109 109
r 6 1 2 cbr 500 ------- 0 0.0 2.0 108 108
r 6 0 1 cbr 500 ------- 0 0.0 2.0 109 109
+ 6 1 2 cbr 500 ------- 0 0.0 2.0 109 109
- 6 1 2 cbr 500 ------- 0 0.0 2.0 109 109
+ 6 0 1 cbr 500 ------- 0 0.0 2.0 110 110
- 6 0 1 cbr 500 ------- 0 0.0 2.0 110 110
r 6.05 1 2 cbr 500 ------- 0 0.0 2.0 109 109
r 6.05 0 1 cbr 500 ------- 0 0.0 2.0 110 110
+ 6.05 1 2 cbr 500 ------- 0 0.0 2.0 110 110
- 6.05 1 2 cbr 500 ------- 0 0.0 2.0 110 110
+ 6.05 0 1 cbr 500 ------- 0 0.0 2.0 111 111
- 6.05 0 1 cbr 500 ------- 0 0.0 2.0 111 111
r 6.1 1 2 cbr 500 ------- 0 0.0 2.0 110 110
r 6.1 0 1 cbr 500 ------- 0 0.0 2.0 111 111
+ 6.1 1 2 cbr 500 ------- 0 0.0 2.0 111 111
- 6.1 1 2 cbr 500 ------- 0 0.0 2.0 111 111
+ 6.1 0 1 cbr 500 ------- 0 0.0 2.0 112 112
- 6.1 0 1 cbr 500 ------- 0 0.0 2.0 112 112
r 6.15 1 2 cbr 500 ------- 0 0.0 2.0 111 111
r 6.15 0 1 cbr 500 ------- 0 0.0 2.0 112 112
+ 6.15 1 2 cbr 500 ------- 0 0.0 2.0 112 112
- 6.15 1 2 cbr 500 ------- 0 0.0 2.0 112 112
+ 6.15 0 1 cbr 500 ------- 0 0.0 2.0 113 113
- 6.15 0 1 cbr 500 ------- 0 0.0 2.0 113 113
r 6.2 1 2 cbr 500 ------- 0 0.0 2.0 112 112
r 6.2 0 1 cbr 500 ------- 0 0.0 2.0 113 113
+ 6.2 1 2 cbr 500 ------- 0 0.0 2.0 113 113
- 6.2 1 2 cbr 500 ------- 0 0.0 2.0 113 113
+ 6.2 0 1 cbr 500 ------- 0 0.0 2.0 114 114
- 6.2 0 1 cbr 500 ------- 0 0.0 2.0 114 114
r 6.25 1 2 cbr 500 ------- 0 0.0 2.0 113 113
r 6.25 0 1 cbr 500 ------- 0 0.0 2.0 114 114
+ 6.25 1 2 cbr 500 ------- 0 0.0 2.0 114 114
- 6.25 1 2 cbr 500 ------- 0 0.0 2.0 114 114
+ 6.25 0 1 cbr 500 ------- 0 0.0 2.0 115 115
- 6.25 0 1 cbr 500 ------- 0 0.0 2.0 115 115
r 6.3 1 2 cbr 500 ------- 0 0.0 2.0 114 114
r 6.3 0 1 cbr 500 ------- 0 0.0 2.0 115 115
+ 6.3 1 2 cbr 500 ------- 0 0.0 2.0 115 115
- 6.3 1 2 cbr 500 ------- 0 0.0 2.0 115 115
+ 6.3 0 1 cbr 500 ------- 0 0.0 2.0 116 116
- 6.3 0 1 cbr 500 ------- 0 0.0 2.0 116 116
r 6.35 1 2 cbr 500 ------- 0 0.0 2.0 115 115
r 6.35 0 1 cbr 500 ------- 0 0.0 2.0 116 116
+ 6.35 1 2 cbr 500 ------- 0 0.0 2.0 116 116
- 6.35 1 2 cbr 500 ------- 0 0.0 2.0 116 116
+ 6.35 0 1 cbr 500 ------- 0 0.0 2.0 117 117
- 6.35 0 1 cbr 500 ------- 0 0.0 2.0 117 117
r 6.4 1 2 cbr 500 ------- 0 0.0 2.0 116 116
r 6.4 0 1 cbr 500 ------- 0 0.0 2.0 117 117